8
 energy: -12.814455721902 gnorm: 0.097693949548 xtb: 6.7.1 (edcfbbe)
C            0.41925533100000       -1.04588080400000       -0.15783235800000
H            0.80729403000000       -0.15901053600000       -0.63667168000000
H           -0.47390153300000       -1.70910270500000       -0.52982669600000
H            1.05776127100000       -1.18657803700000        0.70176897600000
O           -0.81522907500000        0.63551623000000        0.75667716800000
H           -1.29017080700000        0.35132344300000        1.54106534400000
H           -0.42935236200000        1.50069220700000        0.91214321100000
Cl           1.72760266100000       -2.42863206300000       -1.09088197100000
8
 energy: -12.826505984756 gnorm: 0.394602678309 xtb: 6.7.1 (edcfbbe)
C            0.48559934123487       -1.09065793827625       -0.23609662702150
H            0.76920541703869       -0.14154654550473       -0.68649343153307
H           -0.54586709673944       -1.55059528110910       -0.41687918559221
H            0.94688936545836       -1.14866318566106        0.77795029741254
O           -0.74016498541565        0.55744005968058        0.76574595251372
H           -1.30893601610224        0.33128836810564        1.52039966362691
H           -0.42670997322157        1.46917888446999        0.88608451061102
Cl           1.82324346374694       -2.46811662670535       -1.11426918601759
8
 energy: -12.809086724601 gnorm: 1.238789310647 xtb: 6.7.1 (edcfbbe)
C            0.48349510729703       -1.08779728755465       -0.25857616735776
H            0.73977843257228       -0.16844547756003       -0.76970525863437
H           -0.49709497463509       -1.47936775907284       -0.37944204477459
H            0.84519441353745       -1.13659561550122        0.82747148306380
O           -0.70840000003442        0.52730294130925        0.76979192453458
H           -1.31427804874086        0.32717006041515        1.52031351451433
H           -0.41330489900278        1.45840806491708        0.89266950438152
Cl           1.86786948500629       -2.48234719195306       -1.10608096172764
8
 energy: -12.831766081822 gnorm: 0.109023194715 xtb: 6.7.1 (edcfbbe)
C            0.48245123102399       -1.07799365620737       -0.23693927376622
H            0.77075324521532       -0.20018202537089       -0.79297092733089
H           -0.43818433107427       -1.51512651930698       -0.40465410268856
H            0.85693855755221       -1.14659409559213        0.81315521123045
O           -0.73121987101885        0.55122029890903        0.79288792970690
H           -1.33284977595203        0.34850326370274        1.53239709036719
H           -0.42085953529350        1.46803731963754        0.89934465883990
Cl           1.81622999554707       -2.46953685077214       -1.10677859235877
8
 energy: -12.827750173458 gnorm: 0.246866102084 xtb: 6.7.1 (edcfbbe)
C            0.50669648960505       -1.05546064312991       -0.25033828938981
H            0.82154984077156       -0.18269734246165       -0.79305328831898
H           -0.56529553189631       -1.47376761071450       -0.38190610299349
H            0.92869253721514       -1.14140247666013        0.73956827665217
O           -0.74536420519898        0.54763333394912        0.79301864488381
H           -1.34884804006091        0.32809862975060        1.51488483270823
H           -0.42828535728362        1.44960979324834        0.91012248726791
Cl           1.83411378284807       -2.51368594898225       -1.03585456680987
8
 energy: -12.832268157665 gnorm: 0.133437078511 xtb: 6.7.1 (edcfbbe)
C            0.50254297646686       -1.06415919109017       -0.21710688193964
H            0.80184683001410       -0.19800905313926       -0.78674666465149
H           -0.50414977068442       -1.49770494544444       -0.37803162890160
H            0.91711633456314       -1.14911156177668        0.77782605647945
O           -0.73957678986475        0.55725553906594        0.78098916455002
H           -1.35017572496012        0.32940715173248        1.50068155470726
H           -0.42396782382169        1.46139464827032        0.91910853569110
Cl           1.79962348428688       -2.48074485261846       -1.10027814193514
8
 energy: -12.826776470868 gnorm: 0.279645019490 xtb: 6.7.1 (edcfbbe)
C            0.49571937305376       -1.05261311324496       -0.25621982869800
H            0.77409492817220       -0.19675110899999       -0.85771725989084
H           -0.36492705529934       -1.52462545243034       -0.45611554706822
H            0.82635174840010       -1.09471531821254        0.81866331225863
O           -0.71690909318747        0.54485476817796        0.82873809742658
H           -1.35770789766488        0.36142252183714        1.54654139989769
H           -0.43022245408227        1.47503408581748        0.92046027737782
Cl           1.77685996660790       -2.55427864794501       -1.04790845730345
8
 energy: -12.833888076018 gnorm: 0.059269973839 xtb: 6.7.1 (edcfbbe)
C            0.49623828751734       -1.06683219719697       -0.23301768113692
H            0.78048177417043       -0.20223403443496       -0.81437321596184
H           -0.45368240080350       -1.53888302170305       -0.43443485878625
H            0.85092561712620       -1.10984273777030        0.80988653088664
O           -0.72459991357722        0.55161696899454        0.80713771324835
H           -1.34429465668579        0.35196553198141        1.52694552858496
H           -0.41473655060438        1.46364278778184        0.91424813155257
Cl           1.81292735885686       -2.49110556265271       -1.07995015438741
8
 energy: -12.834098416644 gnorm: 0.041948222149 xtb: 6.7.1 (edcfbbe)
C            0.50225735515696       -1.05536787409585       -0.23524408519389
H            0.78903024412709       -0.19883670173819       -0.82440841857716
H           -0.46450293936179       -1.51262074860090       -0.41853388887867
H            0.87575333049349       -1.11875380985899        0.77751032629970
O           -0.72961325609917        0.55144468132436        0.80606807941284
H           -1.35832903527389        0.34534705554737        1.51704580554625
H           -0.41611791317592        1.45966734574073        0.92596120153974
Cl           1.80478173013321       -2.51255221331879       -1.05195702614870
8
 energy: -12.834347349650 gnorm: 0.033891386361 xtb: 6.7.1 (edcfbbe)
C            0.49536115123068       -1.05693739525978       -0.24851605141368
H            0.78210416352874       -0.20372940050443       -0.84015905994826
H           -0.46879684170995       -1.51285625373610       -0.42869632994083
H            0.84538321005502       -1.10256534900052        0.78208549352486
O           -0.72712770317381        0.54858173620051        0.80815320576343
H           -1.34878304786494        0.34257753214408        1.52125942421701
H           -0.40325068640669        1.45268479229425        0.92723430288922
Cl           1.82836927034090       -2.50942792713826       -1.02491899109156
8
 energy: -12.834475288405 gnorm: 0.034176699558 xtb: 6.7.1 (edcfbbe)
C            0.49367820508148       -1.05713269338237       -0.25838272794411
H            0.77527256843511       -0.20581548392420       -0.85515233088921
H           -0.46589842175460       -1.51620702326089       -0.43888057839962
H            0.82282114952243       -1.08159011421036        0.78484498355260
O           -0.72268537900197        0.54399550831291        0.81228169225548
H           -1.35287168887295        0.34457078737011        1.52233878655837
H           -0.38720883292273        1.44415087415896        0.93282487150839
Cl           1.84015191551315       -2.51364412006440       -1.00343270264163
8
 energy: -12.834601523191 gnorm: 0.029422911702 xtb: 6.7.1 (edcfbbe)
C            0.49107645180198       -1.05152687166050       -0.26478825195816
H            0.77579868797593       -0.20937738119795       -0.87290401099818
H           -0.46068815986538       -1.51673348721195       -0.45174781904251
H            0.79998484649518       -1.05492532256539        0.78573095770919
O           -0.73151649160319        0.54119130031633        0.81045944017661
H           -1.34830514227847        0.34057671256602        1.52549660618528
H           -0.36672646491733        1.42926086593489        0.93747935588204
Cl           1.84363578839119       -2.52013808118166       -0.97328428395391
8
 energy: -12.834720560017 gnorm: 0.045469457227 xtb: 6.7.1 (edcfbbe)
C            0.48577940947980       -1.04929754847892       -0.27777535729589
H            0.77233585220468       -0.21910396383513       -0.90241316746748
H           -0.45711276127902       -1.52736281995181       -0.47281780091407
H            0.77720555160171       -1.02342583232165        0.77156104943802
O           -0.72597148879486        0.53583014184261        0.82229322818174
H           -1.36897348056194        0.35240268745832        1.52699578994581
H           -0.33926962591187        1.41638551984118        0.95507465756450
Cl           1.85926605926138       -2.52710044955478       -0.92647640545212
8
 energy: -12.834403751328 gnorm: 0.121078832088 xtb: 6.7.1 (edcfbbe)
C            0.48960105286923       -1.05066693343022       -0.27545775418633
H            0.77325970040205       -0.22175208569621       -0.90338619016186
H           -0.45169971942617       -1.53617278394829       -0.47703802619199
H            0.77693909195344       -1.00872513144422        0.76930135827701
O           -0.72227101395851        0.53327270047744        0.82510292281709
H           -1.38299447686246        0.35995105855327        1.52291188601012
H           -0.33131542615827        1.41207750944699        0.96309210191814
Cl           1.85174030718059       -2.52965659895894       -0.92808430448166
8
 energy: -12.834864354128 gnorm: 0.040273715687 xtb: 6.7.1 (edcfbbe)
C            0.48478140986286       -1.04447753617578       -0.28209332685495
H            0.77243647267734       -0.21578075073830       -0.90713909066550
H           -0.46163173057422       -1.53136043660386       -0.48216847515073
H            0.77108773698793       -0.99813704848532        0.76481024328163
O           -0.73066750132632        0.54087127999300        0.81042749058715
H           -1.35691688662156        0.33724494539439        1.51694113446012
H           -0.32981342892043        1.40954259897538        0.97193616422621
Cl           1.85398344391428       -2.53957531735970       -0.89627214588334
8
 energy: -12.834924841397 gnorm: 0.033863847811 xtb: 6.7.1 (edcfbbe)
C            0.47745185181948       -1.04670269642045       -0.28544547027475
H            0.77601379549143       -0.22802574142923       -0.92032190308128
H           -0.46513208339042       -1.53200148842604       -0.48256110597420
H            0.76229920541740       -0.99910007939189        0.76277880380032
O           -0.72917415297288        0.54228936222006        0.81326245567811
H           -1.35973476764024        0.34148458737928        1.51877213410248
H           -0.32586239939115        1.40875354541355        0.97669223476394
Cl           1.86739806666627       -2.52836975434546       -0.88673515501399
8
 energy: -12.834988894044 gnorm: 0.024471513681 xtb: 6.7.1 (edcfbbe)
C            0.47498643173021       -1.04756723191584       -0.28945780836042
H            0.76936061420199       -0.22620619024138       -0.92177434825617
H           -0.46596376382169       -1.53623519462418       -0.48606701160981
H            0.75866736309127       -0.99189187299097        0.75958989408051
O           -0.72723463032939        0.54434648316354        0.80995242133504
H           -1.35971272044375        0.33938272898128        1.51393995427039
H           -0.31822039599821        1.40561806268746        0.98517781901932
Cl           1.87137661756942       -2.52911905006005       -0.87491892647821
8
 energy: -12.835114917724 gnorm: 0.059289600647 xtb: 6.7.1 (edcfbbe)
C            0.46448768806001       -1.04408616144577       -0.30480884373348
H            0.76172110985192       -0.23134049518236       -0.94846720204710
H           -0.47390648593822       -1.54438413980863       -0.49492520573991
H            0.74296148060906       -0.95733508631651        0.74728422963010
O           -0.72839083845996        0.55519049099796        0.79316569201461
H           -1.35964164212025        0.32462696000378        1.49329080596900
H           -0.28635069612910        1.38954094677588        1.02697010429560
Cl           1.88237890012638       -2.53388478002448       -0.81606758638800
8
 energy: -12.835070588114 gnorm: 0.066378082657 xtb: 6.7.1 (edcfbbe)
C            0.45857191541561       -1.04204297575284       -0.30896724452632
H            0.76229897012842       -0.23333208408761       -0.95514569602536
H           -0.48422873998511       -1.54081170504660       -0.48562104255242
H            0.75473345290538       -0.95875964373915        0.74025374049661
O           -0.73099884443160        0.57014674183973        0.77312979527357
H           -1.35019861736625        0.30704593019179        1.47482606118479
H           -0.28578112259169        1.38841236845519        1.05345280216714
Cl           1.87886250192509       -2.53233089686063       -0.79548642201713
8
 energy: -12.835250277188 gnorm: 0.035166741860 xtb: 6.7.1 (edcfbbe)
C            0.45065294363046       -1.04170672387835       -0.31799549206508
H            0.75302704279452       -0.23643342187015       -0.96653590236929
H           -0.48432628744513       -1.54535309116637       -0.50358627826290
H            0.74117046141203       -0.94688305268396        0.72961245188711
O           -0.72939536902419        0.57206107563810        0.77374735907706
H           -1.34316313081713        0.30654583120354        1.47680544799245
H           -0.27620630354264        1.38196446043623        1.06136770354803
Cl           1.89150015899190       -2.53186734267912       -0.75697329580642
8
 energy: -12.835291289653 gnorm: 0.005933253067 xtb: 6.7.1 (edcfbbe)
C            0.46031328886077       -1.03893124284933       -0.31309988733906
H            0.76217078831399       -0.23711544706024       -0.96778351153246
H           -0.47639417676117       -1.54007647243056       -0.50383783562420
H            0.74024879727219       -0.94489872667414        0.73868144184193
O           -0.72919439833483        0.56131099856678        0.78782428945560
H           -1.35464656128660        0.31658415334663        1.48767243665657
H           -0.28080735984204        1.38057657707126        1.04319636391876
Cl           1.88156913777753       -2.53912210497050       -0.77621130337621
8
 energy: -12.835353376120 gnorm: 0.009789260673 xtb: 6.7.1 (edcfbbe)
C            0.45708005391480       -1.03706213396455       -0.32373013983037
H            0.76125379670775       -0.23629492586399       -0.97747841801510
H           -0.47914670747596       -1.53863082057564       -0.51191726392056
H            0.73712931289476       -0.94302982143752        0.72814284908680
O           -0.72802547564772        0.56024270134041        0.78680186895661
H           -1.35521335251500        0.31468386536838        1.48423223400336
H           -0.27977639443870        1.38063014295378        1.04175395289198
Cl           1.88995828255990       -2.54221127282098       -0.73136308917178
8
 energy: -12.835360466976 gnorm: 0.048132792910 xtb: 6.7.1 (edcfbbe)
C            0.45431396296003       -1.03518875660702       -0.32718298779676
H            0.76419186027936       -0.24020668526331       -0.98472657173479
H           -0.47980086842296       -1.53918225754912       -0.51666705905838
H            0.72965283084311       -0.93428654295030        0.72538327982156
O           -0.73036931588428        0.56156792204029        0.78206939040684
H           -1.35305982372290        0.30977995939785        1.48126297576395
H           -0.27589102749046        1.37815670185018        1.04174528691326
Cl           1.89422189743789       -2.54231260591869       -0.70544232031474
8
 energy: -12.835439119709 gnorm: 0.020697901671 xtb: 6.7.1 (edcfbbe)
C            0.45047953629894       -1.03264860692045       -0.33050773647526
H            0.77353269336757       -0.25205258929427       -0.99899413449487
H           -0.47931469990645       -1.54149945220102       -0.52479831513842
H            0.71038475319474       -0.90969998532305        0.72483203404500
O           -0.73837377566581        0.56724143123426        0.77011300856191
H           -1.34666454554588        0.29687245441956        1.47479264453076
H           -0.26534886471023        1.37119474106881        1.04297740880312
Cl           1.89856441896688       -2.54108025798392       -0.66197291583128
8
 energy: -12.834213073996 gnorm: 0.227900692188 xtb: 6.7.1 (edcfbbe)
C            0.44241128775414       -1.02666147423150       -0.34643106716111
H            0.78988379303911       -0.27306429727774       -1.03529558846475
H           -0.47847534858690       -1.54650172412384       -0.55059391931953
H            0.66566522894342       -0.85409811771913        0.71614674329656
O           -0.75096845275063        0.57770471802613        0.74689189350245
H           -1.33388020751196        0.27154187391349        1.45953167615921
H           -0.24591312882628        1.35669173421733        1.04434880471041
Cl           1.91453634393874       -2.54728497780481       -0.53815654872225
8
 energy: -12.835471428132 gnorm: 0.022275954259 xtb: 6.7.1 (edcfbbe)
C            0.45173451664367       -1.03244176546869       -0.33135020084747
H            0.77604365319505       -0.25671650303052       -1.00519668884311
H           -0.47651993753857       -1.54343511670031       -0.53047520455685
H            0.69750811390736       -0.89156084050232        0.72562240460317
O           -0.73846806585818        0.57014617341688        0.76613993907275
H           -1.34341470336655        0.29107670692413        1.47002726838332
H           -0.26208072360390        1.36771530739971        1.04460799253483
Cl           1.89845666262086       -2.54645622703897       -0.64293351634568
8
 energy: -12.835483805554 gnorm: 0.011665691954 xtb: 6.7.1 (edcfbbe)
C            0.45110172610669       -1.03268707787473       -0.33314542849359
H            0.77532232329925       -0.25639896536510       -1.00649662870558
H           -0.47771832579107       -1.54309905589106       -0.53120084221640
H            0.69932511795043       -0.89324611885442        0.72284845533843
O           -0.73574341936252        0.56866494767448        0.76810310571234
H           -1.34544999177484        0.29250699438375        1.46921265117248
H           -0.26340109081248        1.36901447284515        1.04507070985586
Cl           1.89982317638428       -2.54642746191816       -0.63795002866256
8
 energy: -12.835492962672 gnorm: 0.004252787483 xtb: 6.7.1 (edcfbbe)
C            0.45095689595072       -1.03299501367597       -0.33439260746841
H            0.77504497829108       -0.25667483322046       -1.00791006013754
H           -0.47801279382133       -1.54338372593729       -0.53223540607765
H            0.69920834037125       -0.89207979651113        0.72138053378060
O           -0.73441860851255        0.56851583994804        0.76879373734915
H           -1.34635604389303        0.29293363388834        1.46817886648340
H           -0.26385959798749        1.36927305370524        1.04595262749370
Cl           1.90069634560110       -2.54726142319688       -0.63332569742228
8
 energy: -12.835504421955 gnorm: 0.008280405892 xtb: 6.7.1 (edcfbbe)
C            0.45031213574511       -1.03296075211421       -0.33687194152100
H            0.77565484920265       -0.25891893014060       -1.01273007116064
H           -0.47800923690035       -1.54450728373678       -0.53506537896886
H            0.69606036092967       -0.88530691700931        0.71887789361445
O           -0.73358200202821        0.56927956704737        0.76730272311677
H           -1.34700735174071        0.29149184866072        1.46479705404799
H           -0.26240423766359        1.36809868469987        1.04846609445926
Cl           1.90223499845518       -2.54884848240718       -0.61833437958700
8
 energy: -12.835513705842 gnorm: 0.020503756693 xtb: 6.7.1 (edcfbbe)
C            0.44881718909190       -1.03270753846191       -0.34053988448457
H            0.77735737045549       -0.26407752897798       -1.02149779365797
H           -0.47796223469621       -1.54663177341160       -0.53953071711942
H            0.68911113047752       -0.87226683464459        0.71525944681373
O           -0.73358967889747        0.57119291517462        0.76313164098805
H           -1.34719344766420        0.28780946340246        1.45861856348263
H           -0.25867409401123        1.36500586010295        1.05294999569286
Cl           1.90539328124392       -2.54999682818405       -0.59194925771433
8
 energy: -12.835524087057 gnorm: 0.010832781625 xtb: 6.7.1 (edcfbbe)
C            0.44860995531412       -1.03252769361558       -0.34055061386845
H            0.77783409668499       -0.26536846657878       -1.02277077776231
H           -0.47759194625056       -1.54725507343347       -0.53980855909444
H            0.68728554599146       -0.86961302019709        0.71529828472709
O           -0.73441870370525        0.57182766347218        0.76170736264513
H           -1.34673112030020        0.28674073516100        1.45759324157177
H           -0.25744917053238        1.36388932531268        1.05371896959067
Cl           1.90572085879755       -2.54936573512104       -0.58874591380848
8
 energy: -12.835538703973 gnorm: 0.007661462205 xtb: 6.7.1 (edcfbbe)
C            0.44736707044934       -1.03188101387164       -0.34369750129867
H            0.77974365556291       -0.27057809442216       -1.03087606097146
H           -0.47686517144171       -1.54964489385867       -0.54340471372021
H            0.67996743587538       -0.85793614530928        0.71193674415916
O           -0.73477320909172        0.57329293867460        0.75792346811749
H           -1.34669829803339        0.28351844133276        1.45211180129955
H           -0.25381520124345        1.36052907015295        1.05740147618625
Cl           1.90833323392234       -2.54897256769866       -0.56495321977113
8
 energy: -12.835546206698 gnorm: 0.008095589768 xtb: 6.7.1 (edcfbbe)
C            0.44639863984323       -1.03178248958254       -0.34667965794644
H            0.78101967409781       -0.27405591358264       -1.03657010237424
H           -0.47671492691747       -1.55137029462489       -0.54648427578867
H            0.67434936038387       -0.85095126939629        0.70880727090354
O           -0.73395456344086        0.57350894106416        0.75653098672581
H           -1.34687646564054        0.28186977621509        1.44890279271121
H           -0.25235775435361        1.35894430888689        1.05895552465450
Cl           1.91139555202726       -2.54783532397988       -0.54702054488473
8
 energy: -12.835552263113 gnorm: 0.003502860803 xtb: 6.7.1 (edcfbbe)
C            0.44574667645937       -1.03151606851073       -0.34970779822131
H            0.78234447976165       -0.27653179850356       -1.04144064135109
H           -0.47601433856336       -1.55340348558051       -0.55004655655185
H            0.66812571279590       -0.84511824120371        0.70606006179136
O           -0.73334574733826        0.57346816916960        0.75532338934214
H           -1.34628713418931        0.28017234630659        1.44697661107886
H           -0.25138377603426        1.35792250187380        1.05908581590412
Cl           1.91407364310797       -2.54666568855157       -0.52980888799125
8
 energy: -12.835546309681 gnorm: 0.022338211318 xtb: 6.7.1 (edcfbbe)
C            0.44401349953515       -1.03137978366116       -0.35455096910215
H            0.78481640629666       -0.28162086265027       -1.05014660190692
H           -0.47520478105740       -1.55712042108993       -0.55685211886261
H            0.65619008020356       -0.83346570219070        0.70208180638573
O           -0.73360109598159        0.57404173144294        0.75164155828573
H           -1.34427959477654        0.27604874576225        1.44363427605828
H           -0.24879553390376        1.35553213092876        1.05930802074436
Cl           1.92012053568355       -2.54370810354196       -0.49867397760142
8
 energy: -12.835556497888 gnorm: 0.003626281793 xtb: 6.7.1 (edcfbbe)
C            0.44466163333610       -1.03167403080178       -0.35246364832160
H            0.78400456089050       -0.27883283977143       -1.04531646967672
H           -0.47546959052347       -1.55579765157431       -0.55481681052366
H            0.65994296957297       -0.84029990218257        0.70431554933557
O           -0.73394958801021        0.57313415571206        0.75352682293288
H           -1.34387138454643        0.27781802685519        1.44725297028592
H           -0.25074109451901        1.35725696170178        1.05673212977223
Cl           1.91868200979921       -2.54327698493902       -0.51278854980362
8
 energy: -12.835558094558 gnorm: 0.001112316613 xtb: 6.7.1 (edcfbbe)
C            0.44435692793195       -1.03155597690046       -0.35360971955210
H            0.78460771819208       -0.27941221009276       -1.04673954447142
H           -0.47479193597685       -1.55696697429400       -0.55729675499769
H            0.65637749208853       -0.83811261786144        0.70362456746211
O           -0.73438656062384        0.57289681993248        0.75274090360838
H           -1.34266077537210        0.27694795005967        1.44768978748588
H           -0.25045801888158        1.35688209184355        1.05538282985914
Cl           1.92021466864147       -2.54235134768712       -0.50535007539331
8
 energy: -12.835544541355 gnorm: 0.026064721652 xtb: 6.7.1 (edcfbbe)
C            0.44192923441846       -1.03171969597407       -0.35991880415503
H            0.78850518237300       -0.28352833229718       -1.05428164731519
H           -0.47196396868166       -1.56340626752567       -0.57164651895660
H            0.63509697307203       -0.82724065719062        0.69990539332210
O           -0.73712837596132        0.57083526884517        0.74885837111065
H           -1.33526002202128        0.27234106278636        1.45178996059782
H           -0.24959903374072        1.35507554131697        1.04598439200615
Cl           1.93167952654108       -2.53402918496099       -0.46424915260891
8
 energy: -12.835559856099 gnorm: 0.004443220604 xtb: 6.7.1 (edcfbbe)
C            0.44339572951214       -1.03154404088569       -0.35635334103187
H            0.78655641391077       -0.28069351296584       -1.04946179420317
H           -0.47310473477484       -1.55992808314959       -0.56457140753008
H            0.64618454925988       -0.83374492805530        0.70228621807592
O           -0.73609949483205        0.57160641207671        0.75106501742103
H           -1.33859805863460        0.27501915281352        1.45085207757838
H           -0.25036818877750        1.35621760314686        1.04972673129572
Cl           1.92529330033583       -2.53860486798072       -0.48710150760494
8
 energy: -12.835560342017 gnorm: 0.001782980734 xtb: 6.7.1 (edcfbbe)
C            0.44336453046847       -1.03164425052312       -0.35628225880033
H            0.78669622225125       -0.28051902758532       -1.04901154044760
H           -0.47307084752982       -1.55992574319283       -0.56497651924606
H            0.64577566409272       -0.83427993723853        0.70244207713998
O           -0.73635654483579        0.57126908883241        0.75124922772053
H           -1.33823406047138        0.27522487603933        1.45177369142887
H           -0.25062910778327        1.35630977528815        1.04874403036517
Cl           1.92571365980744       -2.53810704662014       -0.48749671415957
8
 energy: -12.835560574984 gnorm: 0.001978487562 xtb: 6.7.1 (edcfbbe)
C            0.44335958025913       -1.03171642500247       -0.35631263507517
H            0.78718471636598       -0.28004027167651       -1.04819144943070
H           -0.47262904502003       -1.56016117467051       -0.56653109646185
H            0.64413919030121       -0.83490453802420        0.70272350701923
O           -0.73719134383825        0.57041921694488        0.75146770621270
H           -1.33714353560576        0.27561447585467        1.45413631298881
H           -0.25106442014524        1.35630160149366        1.04608647082589
Cl           1.92660437368257       -2.53718514991958       -0.48693682207792
8
 energy: -12.835560664059 gnorm: 0.000733421653 xtb: 6.7.1 (edcfbbe)
C            0.44326507147846       -1.03177219190694       -0.35639457283970
H            0.78727947836979       -0.28011502368156       -1.04822050597631
H           -0.47264065404640       -1.56025362869902       -0.56684867284847
H            0.64371260152347       -0.83482559559187        0.70269313872071
O           -0.73734267951333        0.57028924030087        0.75143223296386
H           -1.33698332729732        0.27562723210703        1.45443992755131
H           -0.25106745517505        1.35621119186471        1.04569494298178
Cl           1.92703648065999       -2.53683348939327       -0.48635449655219
