8
 energy: -12.854760043164 gnorm: 0.000878203725 xtb: 6.6.1 (8d0f1dd)
C            0.15760237497314       -0.68724612230757       -0.16951320001745
H            0.56216483406708       -0.11859597495486       -0.99166727049104
H           -0.59731031095682       -1.40051889781736       -0.46011043345567
H            0.89593572840109       -1.05665333705059        0.55372900690912
O           -0.69229708462806        0.43590873108458        0.68406313837044
H           -1.10335679725134       -0.01306732571331        1.45330729340731
H           -0.07336235167264        1.14636017539349        0.95709336932665
Cl           1.85388312306751       -2.34785951363438       -0.53045991004936
8
 energy: -12.855012071664 gnorm: 0.000107729743 xtb: 6.6.1 (8d0f1dd)
C            0.15768941356367       -0.68694588932925       -0.16778836514512
H            0.56153248388253       -0.12009347958147       -0.99137817628523
H           -0.59673366540668       -1.40132025966540       -0.45707465007442
H            0.89638720136254       -1.05771880783268        0.55425450496109
O           -0.69109646367804        0.43633600959102        0.68284345221847
H           -1.10657796763626       -0.01114271207749        1.45029489969369
H           -0.07262729444844        1.14603667487337        0.95904190754491
Cl           1.85468580836064       -2.34682380097809       -0.53375157891339
8
-12.85511108885
C 0.18003806121967436 -0.7094929803714027 -0.1742435328094649
H 0.5613436301519814 -0.12013036954650254 -0.9914022814509219
H -0.5969600053445382 -1.4012020908871616 -0.45696102913108083
H 0.8961026702803688 -1.0579102520187398 0.5542702939848118
O -0.6954832356142364 0.4422655229230913 0.6873310086750238
H -1.1066700713519773 -0.010898605643243619 1.4501061295720767
H -0.07222817492551437 1.1458996812362745 0.9593483418149804
Cl 1.833462604861905 -2.326123630752837 -0.5292048868818902
8
-12.84950067436
C 0.20412976587675763 -0.7367866401481521 -0.18785224750073723
H 0.5621028713853737 -0.12002244945627777 -0.9919202076120052
H -0.5969437537627168 -1.4019719646320408 -0.45690572489985565
H 0.8996015864481912 -1.0585916159667357 0.5609129015795462
O -0.7010069912803363 0.4495260825920525 0.6919453686681571
H -1.1071163588743158 -0.010842709009051347 1.4513520259437949
H -0.07165693517934478 1.1466076556978715 0.960396465064297
Cl 1.8086578462816816 -2.302369095782392 -0.5249381011885927
8
-12.84296307374
C 0.22726071266280556 -0.7652193062917833 -0.20615944958818344
H 0.5636229422110597 -0.11934813106532835 -0.9933106098516242
H -0.597509648826635 -1.4038062767846184 -0.45711918179623645
H 0.9048487221729532 -1.0584850397766095 0.5731383927584187
O -0.7074332594008501 0.45762369910046297 0.6968730783419514
H -1.107532188809984 -0.010430549394600037 1.4532433908143092
H -0.07123662256671907 1.1476726478054584 0.9620788301303673
Cl 1.7842491343122473 -2.2796845414406484 -0.5223450089404894
8
-12.83739932501
C 0.2488727321706214 -0.7929440139669639 -0.22614755405208745
H 0.5656528512686018 -0.11784907093965791 -0.9956222175347306
H -0.5990337400255666 -1.4065706143508712 -0.45762174905969955
H 0.9095559647036117 -1.0562338220806382 0.5893356314005208
O -0.7140245129563466 0.4656683512008402 0.7017134734237701
H -1.1077767274530874 -0.009358208483045636 1.4554782641717783
H -0.07123502450436209 1.1488480846757518 0.9643801838119671
Cl 1.762705854460946 -2.2606571987612862 -0.5223413356816985
8
-12.83385502126
C 0.2685556624562576 -0.8185022694723753 -0.24521907159109757
H 0.5678178631019077 -0.11561819697594614 -0.9984864049144317
H -0.6013761295360193 -1.4097956069285407 -0.45828046634038044
H 0.9118008621321886 -1.0509338717804315 0.6075285692404016
O -0.7197531912199354 0.472553042767845 0.7058211103167877
H -1.1078305076547255 -0.0075106134248858125 1.4579225119624462
H -0.07182849329547232 1.1499915008152954 0.9672454732422977
Cl 1.7459103899271047 -2.2471637490341108 -0.5254023566669495
8
-12.83246158791
C 0.28589654612343907 -0.840813289801037 -0.2616061909242374
H 0.5698416539856859 -0.11289878632018993 -1.001460813961054
H -0.6041708801698144 -1.4130675519090705 -0.4589401427677665
H 0.9104434819710338 -1.0424091783719875 0.6256650563548306
O -0.7237861190447199 0.4774539054023618 0.7087553007303686
H -1.1077053383228697 -0.004661970422399588 1.4606581558132608
H -0.07322927874316865 1.151096064750297 0.9708238368757051
Cl 1.7347510746706196 -2.239995730979511 -0.5315289759905782
8
-12.83267205766
C 0.30019876046911825 -0.858896673643175 -0.27437666948678036
H 0.5713804266265278 -0.11052137487563715 -1.0037035443099722
H -0.6064118364668183 -1.4157036336534523 -0.4593774229031825
H 0.9052379784753304 -1.0311208817942923 0.6420959354799707
O -0.7253172837997248 0.47947622423608494 0.710065633222914
H -1.107486521487109 -0.0010453411210494552 1.463502418746206
H -0.07531031154905975 1.1521530152290278 0.9748366534077763
Cl 1.7291354730314341 -2.2387078029298757 -0.5398776138582717
8
-12.83374968955
C 0.312262998707671 -0.8736009993646731 -0.2838372763881302
H 0.5723334457983607 -0.10924856564645549 -1.0046876731681644
H -0.6072753493240719 -1.4173440256917802 -0.459498329581791
H 0.8966690807604146 -1.0179704322047913 0.6557181707568297
O -0.7248498459158866 0.4793518343011018 0.7104708461195316
H -1.1072521414297039 0.0031176538927624254 1.4662733234628758
H -0.07792736249522488 1.1531746940242982 0.9790181324802016
Cl 1.727428200217253 -2.241453350334809 -0.5495335182886918
8
-12.83513818005
C 0.3221561703189279 -0.8851387461994182 -0.29036644487440205
H 0.5728576124491608 -0.1092740430855148 -1.0044727229581731
H -0.6066246812736044 -1.4181085648652245 -0.45934960401209846
H 0.8856246274390723 -1.003902666700343 0.6662174804609138
O -0.7227901207514885 0.4775807993225556 0.7103643337601765
H -1.107098369289712 0.0075239218879671445 1.4688431957984753
H -0.08084714479052334 1.154212529720281 0.9831059866631796
Cl 1.7283194068246364 -2.2467387432021466 -0.5597481968233315
8
-12.83653890046
C 0.3295616377196074 -0.8933460514330291 -0.29426114512490525
H 0.573178531332896 -0.11055385093253124 -1.0032776636721028
H -0.6045525472592954 -1.4182786096571218 -0.4590026332532643
H 0.8731493084147482 -0.9897273798859129 0.6738581161054495
O -0.7192661435989521 0.47430462579050214 0.7098209199041391
H -1.107118812876228 0.012015213550877837 1.4712118383554562
H -0.08394715980544146 1.1553342188747757 0.9869959483332327
Cl 1.7309803872362126 -2.2536147438277823 -0.5700386340122461
8
-12.8377537941
C 0.3341598154460386 -0.898109962369342 -0.29592456941229384
H 0.5735368088572952 -0.11272952033955397 -1.0015495377899792
H -0.6015142232698437 -1.4182408201478 -0.4585760571193714
H 0.860246200929973 -0.9760843744610542 0.6792384504048871
O -0.7144837283040523 0.4697332885762402 0.7088911282332281
H -1.1073689456143465 0.01635964090567635 1.4733419710031814
H -0.08705202809943442 1.1565568452681554 0.9905337068690436
Cl 1.7347833993252164 -2.26135820863431 -0.5800225899813922
8
-12.83863509423
C 0.3361809870647499 -0.8998235119890997 -0.29579159332479177
H 0.5741356465482468 -0.11538086208301647 -0.9997475356848597
H -0.5980242476253687 -1.4183621145004257 -0.45819169158207973
H 0.8477735594923468 -0.963448875703505 0.6830611204838002
O -0.7087160025076857 0.46418344965699243 0.7077365694424529
H -1.10786337838804 0.020439545232766414 1.4751924817270152
H -0.09007853309830634 1.1578685626216292 0.9936288500128468
Cl 1.7391473492413754 -2.269340250246389 -0.5894352568241106
8
-12.83912379264
C 0.33588845688582597 -0.8988548250357992 -0.2941686872506247
H 0.5751133693713635 -0.11807753895567843 -0.9982950644767246
H -0.594602611759775 -1.4189369775613567 -0.45796231171367835
H 0.8364185269352087 -0.9521629832491264 0.6859921300563462
O -0.7022243375320804 0.4579452150228914 0.706492004242545
H -1.108580532743323 0.02417078998539819 1.4766960402171936
H -0.09296803124319605 1.159213462550934 0.9961975791027653
Cl 1.7436937493304983 -2.277151000017661 -0.5981032984546276
8
-12.83922388006
C 0.33355380370143634 -0.8955405830451193 -0.2912755687527109
H 0.5765459385425128 -0.12049410571614608 -0.99750001182227
H -0.5916413839180428 -1.420157116751957 -0.45797491677403873
H 0.8266556459808421 -0.9424370073671895 0.688566364338873
O -0.69526852747608 0.45128847725871124 0.7052608256763714
H -1.1094782610639549 0.027508879811316535 1.4777875006173409
H -0.09568949581950481 1.1605240045046428 0.998184627708997
Cl 1.7481925259311475 -2.284549608507555 -0.6059434455317324
8
-12.83899360565
C 0.32947634007685256 -0.8902280398671698 -0.28730547667136097
H 0.5784352510155107 -0.12244708378096895 -0.9975179423602719
H -0.5893613577832377 -1.422086014936154 -0.45827856089505203
H 0.8187838455355211 -0.9343963775339141 0.6911441154046865
O -0.6881423063295807 0.44450173965053946 0.7041193144543254
H -1.1105021617515678 0.03041067431436745 1.4784116038380497
H -0.09820893730471918 1.1617283441885893 0.9995474812160309
Cl 1.7524880177535296 -2.2913840127891936 -0.6129268703898851
8
-12.8385289898
C 0.3240017358179431 -0.883306531814978 -0.28245739463822556
H 0.5807056249071774 -0.12391754962433651 -0.9983256930913662
H -0.587783576793791 -1.424642924032483 -0.45887325829575265
H 0.8129794503667822 -0.9281368780294388 0.693883105290421
O -0.6811891561459907 0.43790816349327566 0.7031111819217225
H -1.1115919176829132 0.032810089083988185 1.478541575726086
H -0.10046342665593702 1.1627594854876182 1.000258654860429
Cl 1.7564386271804677 -2.297524770245677 -0.619045415597805
8
-12.83794534277
C 0.3175251217089942 -0.875210458084631 -0.27693334422632065
H 0.5832230164592376 -0.12502976048238074 -0.999741417400173
H -0.586751442646865 -1.4276281722184943 -0.45971023248551107
H 0.8093068087453048 -0.9237431307372908 0.6967086399125487
O -0.6747906279740958 0.431853701516155 0.7022450329803726
H -1.1126857092388909 0.034622600809495925 1.4781989871126642
H -0.10235629101867229 1.1635681369191377 1.000323212903245
Cl 1.7598837269682268 -2.3028337852129064 -0.6242990294644184
8
-12.83735842188
C 0.3104829768171673 -0.8664114150117638 -0.2709328122358944
H 0.5858200442258682 -0.12598718157907415 -1.0014794234260571
H -0.5860032236045992 -1.4307689810514255 -0.4607005713629709
H 0.8076539218396392 -0.9212200146809649 0.6993559699455345
O -0.6693375360039377 0.42668048838644823 0.7015003200546137
H -1.1137243052088954 0.03577587914118496 1.4774597322760552
H -0.10378434986218933 1.1641342554462735 0.9997966398337417
Cl 1.7626422937595556 -2.307153057419345 -0.6286859632755436
8
-12.83686866397
C 0.3033293111092743 -0.857401180799073 -0.2646627919539075
H 0.5883453980076274 -0.12700369708623946 -1.0032382709673628
H -0.5852577258294379 -1.433801475456299 -0.46174159234774803
H 0.8077940927357588 -0.9204770671419098 0.7015468367885785
O -0.6651656639935637 0.42266944255799593 0.7008299226353899
H -1.1146704358740958 0.03623292838749073 1.4764144599084983
H -0.10467513785449309 1.1644662357716264 0.9987531290499345
Cl 1.7645305463217458 -2.3103297532417697 -0.6322246432484635
8
-12.8365471501
C 0.2965022142396486 -0.848664233103662 -0.2583451281845078
H 0.5906613680164814 -0.12824158325246163 -1.0047365946387667
H -0.5842836141535719 -1.4364838983557118 -0.46272046212288154
H 0.809432455206529 -0.9213393299315201 0.7030644027461154
O -0.6625608115231046 0.4200554920694982 0.7001849443602145
H -1.115502756546849 0.0360046485216249 1.4751634653693477
H -0.10499851044935597 1.1645930941891232 0.9972887257871377
Cl 1.7653949122292814 -2.3122282841487847 -0.6349106747953195
8
-12.83642514443
C 0.29045197713702714 -0.8407146934922378 -0.25224868533975553
H 0.592641198563869 -0.12973129650790452 -1.0057639637304756
H -0.5829933067891594 -1.4386193637264468 -0.4635234276463127
H 0.8122278612186774 -0.9235441292849654 0.7038089474970061
O -0.6615608441573523 0.4188796061763636 0.6995714202843656
H -1.1162071342503885 0.035187569484838026 1.473825877504109
H -0.10479694503310333 1.1645592982768258 0.9955481328722472
Cl 1.76518888873276 -2.312822356502753 -0.6367724950252116
8
-12.83648480211
C 0.2855515885876244 -0.8339977612724538 -0.24664606594887528
H 0.594242125504499 -0.13145053385428948 -1.0062203466670643
H -0.5813746121478877 -1.4401347801531357 -0.4640774536691354
H 0.8158913022990172 -0.9268288692409806 0.7037968210246659
O -0.6620997614260956 0.4190837134219409 0.698984813520604
H -1.1167904085001947 0.033875048811440905 1.4724720073111697
H -0.10413090271216895 1.1644055339989323 0.9936271415492803
Cl 1.763886940646588 -2.3121225357958126 -0.6378839423725616
8
-12.83667181602
C 0.2816148247083901 -0.8283533547731265 -0.24154755727894955
H 0.5954662191662784 -0.13331116569750057 -1.0060912740235914
H -0.5794975999796698 -1.4410347604338805 -0.46433649807519956
H 0.8201501021250808 -0.9309036332796443 0.7031488399438924
O -0.6638201078392085 0.4202725454524444 0.6982401946778984
H -1.1172643519508725 0.032184801904602434 1.47115457926504
H -0.10308781984126618 1.1641711603263598 0.9916174462398829
Cl 1.761779938966203 -2.3104567152371116 -0.6384052645266493
8
-12.83692008186
C 0.2787686237833623 -0.8239662924529401 -0.23711962012063542
H 0.596351102241007 -0.1351762760494136 -1.005440617848244
H -0.577498685953974 -1.4413897411279328 -0.46428557432808504
H 0.8247540112031029 -0.9354767554505137 0.7020400552775653
O -0.6664680173134081 0.4222446950313104 0.6973857913238141
H -1.1176265901997375 0.030257754029568314 1.4698821604751557
H -0.10179216125190652 1.1638616640393808 0.9895890917051612
Cl 1.7589820859468939 -2.3079743350041335 -0.6384458288002421
8
-12.8371704873
C 0.27724265421399236 -0.8211347937658413 -0.23358226459106582
H 0.5969557181642102 -0.13689140535069502 -1.0043803538219234
H -0.575544208811301 -1.4413098511517173 -0.4639343839160554
H 0.8294783496627601 -0.9402673526615033 0.700674339527616
O -0.6698320549553056 0.4248839691210297 0.6965790940106379
H -1.1178703333374258 0.028239916772075477 1.468639721772136
H -0.10038287677939095 1.1634668716654955 0.9875955156709961
Cl 1.7555501266733948 -2.304764913904419 -0.6380941899810172
8
-12.83736734047
C 0.2769333089679215 -0.8197885733919963 -0.23099018272009222
H 0.5973458280311097 -0.13830970148173954 -1.003043344870241
H -0.5737998109182915 -1.440919821590709 -0.4633099068906425
H 0.8341271043473671 -0.945014027039653 0.699269265862345
O -0.6735997374903551 0.42793550078605813 0.6958668179703159
H -1.1180018156698515 0.026266632328779953 1.4674243005650875
H -0.09898705291053328 1.1629922764063483 0.9856900751619524
Cl 1.7517035356396167 -2.301079348766144 -0.6374790964323197
8
-12.8374816969
C 0.27767808612806705 -0.8197829634356596 -0.22934614061597866
H 0.5975827174654128 -0.1393131532781553 -1.0015589682443329
H -0.5724039800855432 -1.4403373332114457 -0.4624489870606022
H 0.8385324817921715 -0.94948831843517 0.6980214705103659
O -0.6774843789714701 0.431155227574188 0.6952737417973343
H -1.1180413514437064 0.024447723019647136 1.4662478260969671
H -0.09770461286448755 1.1624627182554 0.9839222092950243
Cl 1.7476748507955593 -2.2971794366119784 -0.6367275434052142
8
-12.83751065483
C 0.27927922962787677 -0.8209207753216464 -0.2286022163111112
H 0.5977157212484733 -0.1398266557531165 -1.0000383939435802
H -0.5714518554801815 -1.439660140440747 -0.46139513721039893
H 0.842550730355381 -0.9535011928140537 0.6970810235378906
O -0.6812414322574312 0.43432476654092633 0.6948010698888012
H -1.118019173630852 0.02286463029807029 1.465135374465189
H -0.09660533591967847 1.161917107198233 0.9823364809118249
Cl 1.743694782401979 -2.2933221168066957 -0.6359596236921324
8
-12.83747144028
C 0.2815345994708573 -0.8229842366274741 -0.228670355413195
H 0.5977773398038452 -0.1398185488268264 -0.9985527423337833
H -0.5709883458553392 -1.4389517476409357 -0.4601827801734897
H 0.846076980931459 -0.9569212483401304 0.6965398963835205
O -0.684692522403023 0.4372748439540569 0.694431078384142
H -1.1179694774846598 0.021565234628056297 1.4641093209041876
H -0.09572798969413669 1.161396224958404 0.98095969468601
Cl 1.7399600337126875 -2.289727420646604 -0.6352799881687905
8
-12.83739165028
C 0.28423957247320697 -0.8257377638526954 -0.22942559273409208
H 0.5977843235747871 -0.1393041188946217 -0.9971425979406445
H -0.5710081358719253 -1.4382473059132355 -0.45884587258142207
H 0.8490245683004167 -0.9596549822303292 0.6964358607301419
O -0.6877095216687106 0.4398764315286059 0.6941343258854374
H -1.1179270616622192 0.020580844332345555 1.463193222457989
H -0.09509638516381065 1.1609411408609578 0.9798110845960284
Cl 1.7366334361239608 -2.286579313462947 -0.6347792390259092
8
-12.83730031328
C 0.2871984424463855 -0.8289419770034485 -0.23071558227129893
H 0.5977408774055395 -0.13834545302509108 -0.9958198164954168
H -0.5714567016254585 -1.437557309211868 -0.4574184276404152
H 0.8513091380998576 -0.9616303459859921 0.6967578856889235
O -0.6902036648329053 0.44203466257042656 0.6938753661217504
H -1.1179270094153912 0.01993810455606585 1.462412603645537
H -0.09473185804875502 1.160593511612057 0.9789094687981872
Cl 1.7338417413170315 -2.284025881315917 -0.6345386504804528
8
-12.83722129126
C 0.29023149597750436 -0.8323650690746738 -0.23237245273178447
H 0.5976472184160652 -0.1370714288504005 -0.9945884626547686
H -0.5722180089260124 -1.436884200370647 -0.4559565160918507
H 0.8528531050851041 -0.9628174721349239 0.6973977578269006
O -0.6920919049309567 0.4436622839343067 0.6936247009964274
H -1.117990417614336 0.019633480490886434 1.4618041005687188
H -0.09462493465329364 1.1603864499664927 0.9782759320942586
Cl 1.7317091844124777 -2.2822028571402635 -0.6346182847711728
8
-12.83716991294
C 0.293176278023069 -0.8357913646392477 -0.23423051365215491
H 0.5975040468729358 -0.1356145389280476 -0.9934342122184892
H -0.573167360899413 -1.4362212773902514 -0.45450264195880224
H 0.8536583386710261 -0.9632649567616209 0.6982305919059213
O -0.6933247052360656 0.4447097273859424 0.6933760099836368
H -1.118122707353336 0.01963814530640479 1.461365858341534
H -0.09475203709255772 1.160320958565637 0.977892801237927
Cl 1.7302958435208775 -2.28116312881709 -0.6350218837032928
8
-12.83715123184
C 0.2958562763918035 -0.8389886204261223 -0.23611423976556123
H 0.597320890474665 -0.13411483705341942 -0.9923512350666367
H -0.5741754309423993 -1.4355720795230904 -0.4531061731301448
H 0.8537970189701287 -0.9630814905099879 0.6991405176083694
O -0.693926091898144 0.44519273218871674 0.6931279852567759
H -1.118314319951448 0.01989696697715515 1.461072947903352
H -0.09507131092369803 1.1603746667363033 0.9777171441788008
Cl 1.729586876427836 -2.280877018016905 -0.6357166075941126
8
-12.83716096412
C 0.2981425903168406 -0.8417771593377222 -0.23787050267461193
H 0.5971124456585697 -0.13267214221421175 -0.9913342885310592
H -0.5751493738528133 -1.4349440696468425 -0.4517984291636305
H 0.8533664174277584 -0.962385530349161 0.7000466726926827
O -0.6939504610277116 0.44515755171895005 0.6928798704925784
H -1.11855742343353 0.020364402423524802 1.4608920531588523
H -0.09555193728043745 1.1605241683369818 0.9777037107643322
Cl 1.729516443634591 -2.2812721260178055 -0.6366727012795357
8
-12.83718948023
C 0.3001007047087112 -0.8441969918219407 -0.23945418528488263
H 0.5968986938314584 -0.13135505607217013 -0.9903867279718513
H -0.5760272323071367 -1.4343525887103632 -0.45060286450500675
H 0.8524826347545611 -0.9613037130255319 0.7008912119485188
O -0.6935315756073707 0.44474845652007916 0.6926919122670367
H -1.118845675720128 0.02099698931544973 1.4607910334430343
H -0.09616448263146721 1.160748279880817 0.9778089809587814
Cl 1.7299062051394245 -2.2821634935128245 -0.6378297021111621
8
-12.83722639109
C 0.3017091501564908 -0.846200990253771 -0.2407972345876883
H 0.5967021885949623 -0.13020922489980427 -0.9895189848018765
H -0.5767697697953292 -1.4338182277248253 -0.44953812130196913
H 0.8512766599232711 -0.9599643055490594 0.7016460742799435
O -0.6927648492110978 0.44404986854684964 0.6925638148317911
H -1.1191769836349958 0.021747482242258517 1.460750588242695
H -0.096872078571456 1.161035544279556 0.9779969409242698
Cl 1.7306300709143436 -2.2834165869707532 -0.6391368031950603
8
-12.83726346173
C 0.30285757156625714 -0.8476555119806229 -0.24181554902575247
H 0.5965440614734355 -0.12924919806115137 -0.9887321663055575
H -0.5773622520449795 -1.4333567878046005 -0.4486032263322468
H 0.8498762169432446 -0.9584823393741497 0.702309760305357
O -0.6916955702733083 0.4430791216338391 0.6924419274288598
H -1.119559612825113 0.02258450780372847 1.460762839942774
H -0.09764957443563259 1.1613890688076967 0.978244427902923
Cl 1.7316224882828015 -2.284956631664766 -0.6405572519937723
8
-12.83729349546
C 0.30352838725797326 -0.8485218921994359 -0.24245258919648258
H 0.5964487929535168 -0.1284961081242009 -0.9880573913465043
H -0.57779488380451 -1.4329998695647403 -0.44782283551825797
H 0.8484149901904536 -0.9569759810808229 0.7028864481664435
O -0.6904220737944073 0.44191901864392674 0.6923140773985682
H -1.1199827911744984 0.023447028782581193 1.460812264193769
H -0.0984451301829632 1.1617911866162676 0.9785155958160072
Cl 1.7327765041098846 -2.2866666296528595 -0.6420411013509821
8
-12.83731186885
C 0.30375944626915974 -0.8488328868118902 -0.24270472952410727
H 0.59643802522509 -0.12795049289925103 -0.987511172811433
H -0.5780710834325284 -1.4327711883483003 -0.4472030805866137
H 0.8470074142354784 -0.9555441181424488 0.7033862266902
O -0.6890387337871433 0.44065604074825465 0.6921849861736685
H -1.1204392161461216 0.024297902337161253 1.460879395959337
H -0.09923027646427326 1.1622263844459353 0.9787810886439993
Cl 1.733985317318077 -2.2884296508084603 -0.6435378757079697
8
-12.8373178785
C 0.30361499535628966 -0.848658168526759 -0.24260056877357997
H 0.5965171055016232 -0.12760531396109287 -0.9871092875652452
H -0.5782052629863325 -1.4326789655743921 -0.4467509732926391
H 0.8457571864821888 -0.9542762602019812 0.7038187853466051
O -0.6876387052880069 0.4393784358083918 0.6920664201370821
H -1.1209107301397396 0.02509619554513184 1.4609408642885546
H -0.0999728159367941 1.1626682004074724 0.9790107871282647
Cl 1.735155693332129 -2.2901429465160215 -0.6450017202785459
8
-12.83731369744
C 0.30316337193290505 -0.8480770636793008 -0.24218292885041756
H 0.5966796732834307 -0.12744147900929884 -0.9868458556269719
H -0.5782156365925769 -1.432712978036736 -0.4464546028953944
H 0.8447431837476601 -0.9532404789173641 0.7041921924096401
O -0.6863019674203599 0.4381622657034617 0.6919690048458808
H -1.121381218952209 0.025812586499855024 1.4609775787736843
H -0.10064974367865039 1.1630944458502432 0.979182955660802
Cl 1.7362121923929223 -2.2917237576342386 -0.6463959600239673
8
-12.83730308614
C 0.3024768979238593 -0.8471766961916684 -0.2415044533172686
H 0.596924074203771 -0.12744593359795822 -0.9867034611690803
H -0.5781088316783164 -1.4328627750580614 -0.44629517089748355
H 0.8440176733737643 -0.9524804770846135 0.7045173597925506
O -0.6850875897577401 0.43706288279060607 0.6918974595515388
H -1.1218483329668671 0.026435136510455575 1.4609763290464373
H -0.10125377581626646 1.1634979466150637 0.9792833179619336
Cl 1.7370981917105932 -2.2931127611925137 -0.6476985808312539
8
-12.83729023827
C 0.3016351919901532 -0.8460536783739122 -0.24062476336043842
H 0.5972284822460963 -0.12759043699734401 -0.98665141709337
H -0.5779035160010864 -1.4330955720464162 -0.4462428672342073
H 0.8436110058943178 -0.9520288474154612 0.7047807687100075
O -0.6840598830055873 0.43613779391856966 0.6918494150891004
H -1.1222968139486014 0.026942325935269528 1.4609348234705533
H -0.10176341967548522 1.1638644182663334 0.9793070804870182
Cl 1.7377652878237455 -2.294254709111477 -0.6488808952994277
8
-12.83727888911
C 0.3007194402951614 -0.8448078165987336 -0.23960797373634005
H 0.597576886593448 -0.12785370677075836 -0.9866576399096143
H -0.5776100760738507 -1.433383379942489 -0.4462685739277786
H 0.8435191130523116 -0.9518851262552728 0.7049759662492555
O -0.6832603529726075 0.43542246887039704 0.6918175818863975
H -1.1227233407927593 0.027326228433703623 1.4608550186124887
H -0.10216966894227214 1.164192053448396 0.9792542238445301
Cl 1.73818268150195 -2.2951168491735863 -0.6499292599988417
8
-12.83727160564
C 0.2998066633849451 -0.8435353496902703 -0.23851914817651626
H 0.5979561516218383 -0.12821794374128573 -0.9866904567450286
H -0.5772349718990866 -1.4337012132755145 -0.44634445082708585
H 0.84372024807021 -0.952032032311592 0.7050993804893457
O -0.6827265672292457 0.4349483978626286 0.6917925976515732
H -1.1231311797385626 0.02758496152137223 1.4607390252196075
H -0.10246912121469959 1.1644848129907641 0.9791249446916948
Cl 1.7383316585741815 -2.2956817061312886 -0.650840017505996
8
-12.83726951251
C 0.2989862559780905 -0.8423471979599454 -0.23743259892096202
H 0.5983368646238785 -0.12863899789659522 -0.9867189135155502
H -0.5768119700080546 -1.4340116131567413 -0.4464367806197096
H 0.8441601736363521 -0.9524203796480755 0.7051538843457535
O -0.6824631882138865 0.43472017107589844 0.6917774904654941
H -1.1235026003971529 0.02772973893574887 1.4606017706375716
H -0.10266543950173337 1.1647350467680408 0.9789440692267719
Cl 1.7382232757281584 -2.295950024316971 -0.6515942072574096
8
-12.83727206954
C 0.29831171550898383 -0.841315796817111 -0.23640730588731124
H 0.5987047697483614 -0.12908956823763554 -0.9867197836607257
H -0.5763591517899627 -1.4342931544218114 -0.44652086929791124
H 0.8447921861736375 -0.9530050189997575 0.7051495220593031
O -0.6824526404994303 0.43472097815736493 0.6917681479801256
H -1.1238376203900997 0.027777023475197997 1.4604499974966378
H -0.10277102232151171 1.1649465903915242 0.9787247541206194
Cl 1.7378812495587217 -2.2959480223496076 -0.6522029209958623
8
-12.83727771647
C 0.2977580570960327 -0.8404259533322903 -0.23546063920433344
H 0.5990488819677594 -0.12954225996977015 -0.9866765604803667
H -0.5758962696472917 -1.4345302789917853 -0.4465763370323667
H 0.8455656488091337 -0.9537346914434824 0.7051023823855878
O -0.6826370384509785 0.43488803121485076 0.6917365886419121
H -1.1241378121326344 0.02774788205660584 1.4602896668437244
H -0.10280308643418036 1.1651239799856214 0.9784807539503197
Cl 1.7373747139386342 -2.295750124932428 -0.6526952101604038
8
-12.83728469059
C 0.2973547659047408 -0.8397188097822122 -0.2346276519536966
H 0.59936179754632 -0.12996896584817028 -0.9865819392068601
H -0.5754464110847396 -1.4347146316208432 -0.4465886941282521
H 0.8464281793239651 -0.9545569314496393 0.705027409216344
O -0.6829775195194221 0.4351903690885666 0.6916896429938887
H -1.1244031731135782 0.027666675258074903 1.4601219251342055
H -0.10278347037329819 1.1652680817281689 0.9782237201848133
Cl 1.7367429660687015 -2.2954006491065164 -0.653091895068754
8
-12.83729147894
C 0.29715700597478584 -0.8392619752796204 -0.23395175335995558
H 0.5996393088793491 -0.13034367971339486 -0.9864358435319497
H -0.5750328981449313 -1.434843848547451 -0.44654904789704497
H 0.8473291164434531 -0.955420905049018 0.7049389904149783
O -0.6834454261688526 0.4356129693422691 0.6916508704074936
H -1.1246341795908403 0.02755801208191904 1.4599467590844057
H -0.10273470526648945 1.1653796533941572 0.977964179014287
Cl 1.7360092379254806 -2.294927698148603 -0.6534094613470675
8
-12.837296696
C 0.2971577266489788 -0.839054767443882 -0.23344684485263206
H 0.5998792830836681 -0.13064549014168203 -0.9862420706625138
H -0.5746755676196175 -1.434919116410967 -0.446453054171843
H 0.8482220017821821 -0.9562783859537454 0.7048540176823074
O -0.6839927285296601 0.4361134194745883 0.691621162318694
H -1.1248346544005479 0.027443981622718425 1.4597686032945285
H -0.10267586340173958 1.1654643784802747 0.977713897993593
Cl 1.735221481480441 -2.294384736543112 -0.6536725077710893
8
-12.83729968292
C 0.29733538446531216 -0.8390786581172431 -0.23311526015551828
H 0.600081388929444 -0.13086031392017577 -0.9860072288481444
H -0.5743887865430174 -1.4349443665451305 -0.44630088031747395
H 0.8490665370839993 -0.9570868165978599 0.7047886537911585
O -0.6845730987058023 0.4366486752020949 0.6915969611681388
H -1.1250111523798692 0.027342999757208594 1.4595950595505245
H -0.10262188879031324 1.1655317026854017 0.9774845398475522
Cl 1.7344261106364196 -2.2938235756323233 -0.6539051487015818
8
-12.83730047846
C 0.2976608006090063 -0.8393036384979661 -0.23294801900039439
H 0.6002472487567719 -0.1309813169529923 -0.9857382655176443
H -0.5741801967879807 -1.4349249798252943 -0.44609528372958424
H 0.8498315397550502 -0.957813246507659 0.7047554683307621
O -0.6851462510209467 0.4371804596162567 0.6915731327347556
H -1.1251720761680166 0.02726993542207831 1.4594335137052385
H -0.10258469234395297 1.165592620170961 0.9772853653409691
Cl 1.7336629379772417 -2.293289724550378 -0.6541302799878395
8
-12.8372996309
C 0.29810128427188826 -0.839692658617044 -0.2329266515736458
H 0.6003796086657665 -0.13100822054361905 -0.9854428145910236
H -0.5740516259036316 -1.4348673405440042 -0.44584181471872153
H 0.8504940542293301 -0.9584340154890835 0.7047625264357728
O -0.6856784609964747 0.4376770817399598 0.6915456102058466
H -1.1253252057924163 0.02723757644605993 1.4592902438684243
H -0.10257520217612802 1.1656570650843026 0.9771243179948668
Cl 1.7329641443515262 -2.2928214990460916 -0.6543694335962746
8
-12.83729793267
C 0.2986208668842974 -0.8402023011078659 -0.23302449588881372
H 0.6004817345377991 -0.13094948472422888 -0.9851319950560506
H -0.5739981469186412 -1.4347798751912324 -0.44555196383524515
H 0.8510336037846427 -0.9589297946988425 0.7048119785902162
O -0.6861382098845107 0.43810990041632875 0.6915133069141216
H -1.12547407437801 0.027253982664770623 1.4591699918095729
H -0.102600690970292 1.1657297248677874 0.9770074417705733
Cl 1.7323595292799732 -2.2924526298430834 -0.654639374630573
8
-12.83729618699
C 0.2991824560495903 -0.8407861228583042 -0.23321021458652103
H 0.6005579220993131 -0.13082008140484547 -0.9848160064986269
H -0.5740087807051653 -1.4346711421044351 -0.4452386607701109
H 0.8514363868009099 -0.9592893582003803 0.7048998631937354