16
 energy: -17.812259349227 gnorm: 0.000533089533 xtb: 6.6.1 (8d0f1dd)
C           -2.14258650202560        0.05469546434280       -0.54621358580879
C           -1.33680923328268       -0.10950362542520       -1.62195150526486
C            0.07534177728831       -0.12008117398024       -1.51938908807336
C            0.71970680757703        0.03323050667404       -0.33838950822953
H           -1.81319644291027        0.58735490877330        0.32657606858420
H           -3.20948722728822       -0.06767628206343       -0.63952696456674
H           -1.76574452220114       -0.44616925502915       -2.55661077166782
H            0.62975176496305       -0.46393896799612       -2.38270500628343
H            1.78702464254423       -0.10494748544278       -0.27685593634825
H            0.27566608325577        0.57151147744814        0.47833542712206
C           -1.48190140765736       -1.81313932708168        0.65183594097403
C           -0.13481938128869       -1.82342026558603        0.74934793773165
H           -2.09325066546248       -1.43354594813967        1.45217503318622
H           -1.98455754420455       -2.41139966893180       -0.08760225390220
H            0.36059202803033       -1.45220934066091        1.62974393117771
H            0.46007551266577       -2.42989869189739        0.08922917237250
