16
 energy: -17.819521935508 gnorm: 0.000873672327 xtb: 6.6.1 (8d0f1dd)
C           -2.09060264763008       -0.04864989362765       -0.46788744492964
C           -1.31270624356845       -0.11971683850870       -1.62534968494591
C            0.06484131913665       -0.12127806249511       -1.54811394820807
C            0.71984231540995       -0.00514768159367       -0.33230005953705
H           -1.79030410317734        0.62534390718563        0.31840809897894
H           -3.16013779767095       -0.16209025030818       -0.56437781933865
H           -1.78350830021451       -0.40416230860837       -2.55652489770585
H            0.63387047450016       -0.40584180221215       -2.42265131257826
H            1.78561081484147       -0.16334553904162       -0.28677122901927
H            0.32043884024853        0.62836122238437        0.43954930830230
C           -1.52904031972475       -1.71333855091427        0.57325732271210
C           -0.13984621238212       -1.75279495951062        0.73259647172740
H           -2.13106156946595       -1.46768255877657        1.43396772952802
H           -1.97778821113419       -2.42521351445523       -0.10140270100963
H            0.29610206770410       -1.44850358377118        1.66873823224108
H            0.44009526312673       -2.44507726074676        0.14686082478421
16
 energy: -17.819631443339 gnorm: 0.000325432891 xtb: 6.6.1 (8d0f1dd)
C           -2.09108695649202       -0.05048715356791       -0.46884264523045
C           -1.31197253338562       -0.12073354070272       -1.62612321279164
C            0.06508740334901       -0.12028673440319       -1.54782679087015
C            0.71916827307361       -0.00478448256184       -0.33099838152759
H           -1.79255437848520        0.62545158993401        0.31602379616980
H           -3.16067576153129       -0.16443636853312       -0.56640294007157
H           -1.78189105745897       -0.40317834972363       -2.55807030729168
H            0.63566246947819       -0.40220624529169       -2.42291515027288
H            1.78464488911693       -0.16274611012053       -0.28461731098719
H            0.31893328713100        0.62899464930968        0.44062269732585
C           -1.52886872760443       -1.71161334935271        0.57451644567929
C           -0.13891658397284       -1.75434910391493        0.73062495266875
H           -2.12752835879998       -1.46249054794895        1.43686551120117
H           -1.98118896541930       -2.42553423176246       -0.09591598846205
H            0.29953001818580       -1.45187257731379        1.66604662059410
H            0.43746267281435       -2.44886511904630        0.14501159486794
16
 energy: -17.819633979006 gnorm: 0.000486866417 xtb: 6.6.1 (8d0f1dd)
C           -2.09111727678664       -0.05049587490840       -0.46933072483204
C           -1.31176982378007       -0.12070532245510       -1.62636059786636
C            0.06532708648788       -0.12007825793083       -1.54777947907809
C            0.71899608422554       -0.00477779656821       -0.33073444879226
H           -1.79289839559258        0.62544713193322        0.31569219294319
H           -3.16063001137711       -0.16484452354224       -0.56708745958652
H           -1.78140629065082       -0.40372293091209       -2.55831281945184
H            0.63609176556734       -0.40229866689370       -2.42254286631863
H            1.78457271370806       -0.16230148298920       -0.28417710872048
H            0.31831709820021        0.62846626612944        0.44104725852458
C           -1.52900192376339       -1.71144592688012        0.57540596251170
C           -0.13894899543226       -1.75415463906370        0.73014687696473
H           -2.12687261119105       -1.46225253522432        1.43823866592136
H           -1.98201640500861       -2.42489037508908       -0.09500635431238
H            0.30037956700580       -1.45279764790347        1.66549994346765
H            0.43678310838693       -2.44828509270227        0.14329984962709
16
 energy: -17.819636153143 gnorm: 0.000325630331 xtb: 6.6.1 (8d0f1dd)
C           -2.09127079986643       -0.05038945928177       -0.46970940399212
C           -1.31167244038364       -0.12078942604804       -1.62649908169600
C            0.06542227026335       -0.12001672259019       -1.54763432043200
C            0.71876993117171       -0.00484513864628       -0.33039465934692
H           -1.79330233508760        0.62562198440708        0.31533461151192
H           -3.16074085551789       -0.16504813090491       -0.56759338115761
H           -1.78105841844172       -0.40396069250524       -2.55853177515412
H            0.63641280600464       -0.40216814863870       -2.42227051951091
H            1.78437606110748       -0.16206944293976       -0.28362405004376
H            0.31780455921884        0.62828775065982        0.44134442099982
C           -1.52892396452068       -1.71137142929485        0.57589083048700
C           -0.13879998741738       -1.75423054535996        0.72967813439034
H           -2.12618460168886       -1.46156343154360        1.43896170773188
H           -1.98260289882795       -2.42477783918890       -0.09409486871510
H            0.30120140025503       -1.45348383530474        1.66490947473990
H            0.43637496373034       -2.44833316782003        0.14223177118939
16
 energy: -17.819638250770 gnorm: 0.000237877632 xtb: 6.6.1 (8d0f1dd)
C           -2.09145223887240       -0.05021373227688       -0.46998995608007
C           -1.31167039185363       -0.12079494418027       -1.62659251894078
C            0.06541726741076       -0.12000407664421       -1.54754642319327
C            0.71854658174493       -0.00500230973685       -0.33014674750685
H           -1.79355500484036        0.62571378725866        0.31514139379733
H           -3.16088582845759       -0.16503008242202       -0.56793318683132
H           -1.78091579923563       -0.40401253732287       -2.55868442172834
H            0.63653448049441       -0.40215009779233       -2.42209848299385
H            1.78417681864140       -0.16211622915929       -0.28327566819805
H            0.31750205844603        0.62819326339578        0.44150489306859
C           -1.52874990034374       -1.71137687706064        0.57615917761749
C           -0.13858857543887       -1.75423508762049        0.72943536245962
H           -2.12574778924374       -1.46120978545384        1.43929734186678
H           -1.98278297445480       -2.42468912331009       -0.09366485163644
H            0.30169286765006       -1.45380703870128        1.66464104622119
H            0.43628411835239       -2.44840280397346        0.14175193307971
16
 energy: -17.819640307818 gnorm: 0.000250451899 xtb: 6.6.1 (8d0f1dd)
C           -2.09160904163327       -0.05002029398227       -0.47022788479483
C           -1.31168093120902       -0.12077728337337       -1.62666970204652
C            0.06540130783402       -0.12001624285118       -1.54746441318445
C            0.71834624988110       -0.00517369646626       -0.32992840412106
H           -1.79375823942440        0.62580544533678        0.31499695278358
H           -3.16101737130538       -0.16497618217720       -0.56820803798589
H           -1.78081304476133       -0.40402051554595       -2.55881337674404
H            0.63662013770007       -0.40218762382522       -2.42193928433170
H            1.78398963035767       -0.16220423930909       -0.28297540071297
H            0.31725593297357        0.62812229625538        0.44162431091829
C           -1.52859438220029       -1.71142894874874        0.57637926236737
C           -0.13840194516989       -1.75419833531288        0.72921926833364
H           -2.12539499166442       -1.46096225507116        1.43955677674551
H           -1.98288335443461       -2.42465683042467       -0.09334400101371
H            0.30209176665399       -1.45401291412771        1.66440767883659
H            0.43625396640141       -2.44843005537653        0.14138514595192
16
 energy: -17.819642330206 gnorm: 0.000239502059 xtb: 6.6.1 (8d0f1dd)
C           -2.09176016610074       -0.04981877725245       -0.47044789644907
C           -1.31170136159983       -0.12074867101872       -1.62673960054447
C            0.06537645839169       -0.12003772417709       -1.54739109934023
C            0.71815495448264       -0.00535574058387       -0.32972825028427
H           -1.79393449935302        0.62588574434634        0.31487912702379
H           -3.16114614411574       -0.16489587124066       -0.56845152239137
H           -1.78073637033373       -0.40400340455274       -2.55893097803104
H            0.63668109072790       -0.40224549398019       -2.42179573628735
H            1.78380969647240       -0.16232097551742       -0.28270719605549
H            0.31704188369519        0.62805862267700        0.44172255308880
C           -1.52843877330101       -1.71149857780556        0.57657293453315
C           -0.13822029648087       -1.75414285378753        0.72903132141755
H           -2.12508851257217       -1.46077463760349        1.43976924817291
H           -1.98293191472997       -2.42463723033537       -0.09309017533279
H            0.30243764813289       -1.45416040281616        1.66421302051416
H            0.43626199668360       -2.44844168135216        0.14109314096745
16
 energy: -17.819644319140 gnorm: 0.000235487346 xtb: 6.6.1 (8d0f1dd)
C           -2.09190694149860       -0.04961359811787       -0.47065648138494
C           -1.31172692473405       -0.12071429053227       -1.62680495731318
C            0.06534701001244       -0.12006441094801       -1.54732283227608
C            0.71796999795272       -0.00554319829744       -0.32953918099050
H           -1.79409477732307        0.62596060999359        0.31477624841079
H           -3.16127258377041       -0.16480141933920       -0.56867623150429
H           -1.78067436295581       -0.40397243590289       -2.55904165900201
H            0.63672820826020       -0.40231447563985       -2.42166139961713
H            1.78363482528135       -0.16245293638218       -0.28245847149136
H            0.31684681729157        0.62799822880766        0.44180907655375
C           -1.52828462516870       -1.71157826505062        0.57675112840435
C           -0.13804279863733       -1.75407620733002        0.72885927821451
H           -2.12480957284017       -1.46062177187629        1.43995509453222
H           -1.98295168032306       -2.42462640732376       -0.09287426107007
H            0.30275195441381       -1.45427418836452        1.66404022774466
H            0.43629114403835       -2.44844290869641        0.14084331179102
16
 energy: -17.819646275479 gnorm: 0.000231109912 xtb: 6.6.1 (8d0f1dd)
C           -2.09205095498592       -0.04940694491131       -0.47085788821396
C           -1.31175548464257       -0.12067673970777       -1.62686752595848
C            0.06531486776872       -0.12009396434157       -1.54725776431860
C            0.71778917864609       -0.00573318531820       -0.32935716026968
H           -1.79424542639734        0.62603200007833        0.31468228614176
H           -3.16139745301830       -0.16469890448042       -0.56888951328446
H           -1.78062113047878       -0.40393349931283       -2.55914805830086
H            0.63676707892898       -0.40238950781928       -2.42153289572167
H            1.78346335507095       -0.16259338700431       -0.28222188951126
H            0.31666332172547        0.62793986579279        0.44188858259156
C           -1.52813150170646       -1.71166329240282        0.57691971379034
C           -0.13786801085680       -1.75400354790084        0.72869728968157
H           -2.12454729546825       -1.46048925166237        1.44012472973017
H           -1.98295449056694       -2.42462039117085       -0.09268105424508
H            0.30304705373063       -1.45436851520670        1.66388108019068
H            0.43633258224974       -2.44843840963191        0.14061895869972
16
 energy: -17.819648200028 gnorm: 0.000227816094 xtb: 6.6.1 (8d0f1dd)
C           -2.09219285548568       -0.04920013966856       -0.47105440454485
C           -1.31178568258066       -0.12063747682774       -1.62692825344954
C            0.06528126030074       -0.12012508262655       -1.54719479900640
C            0.71761138629035       -0.00592403156992       -0.32917987343032
H           -1.79438995298014        0.62610115940396        0.31459382056294
H           -3.16152097508384       -0.16459198136420       -0.56909543458505
H           -1.78057319858859       -0.40389002342139       -2.55925159725842
H            0.63680099727445       -0.40246777969112       -2.42140825443503
H            1.78329446490876       -0.16273828478751       -0.28199325657062
H            0.31648722270863        0.62788284211741        0.44196373494419
C           -1.52797951449564       -1.71175115709055        0.57708211955388
C           -0.13769539432180       -1.75392758427996        0.72854172029646
H           -2.12429564072042       -1.46036911223274        1.44028433995390
H           -1.98294738026787       -2.42461726925266       -0.09250171271222
H            0.30332990577440       -1.45445117604275        1.66373046556460
H            0.43638104726653       -2.44843057766578        0.14041027611821
16
 energy: -17.819650093363 gnorm: 0.000223466369 xtb: 6.6.1 (8d0f1dd)
C           -2.09233310375162       -0.04899390869760       -0.47124741973990
C           -1.31181676607760       -0.12059734286729       -1.62698770895588
C            0.06524686380234       -0.12015702168986       -1.54713329276873
C            0.71743592565826       -0.00611476619192       -0.32900596403634
H           -1.79453044171224        0.62616876339636        0.31450886684959
H           -3.16164335164851       -0.16448272014637       -0.56929641192161
H           -1.78052856729141       -0.40384398578231       -2.55935313117987
H            0.63683185753712       -0.40254766150406       -2.42128631760702
H            1.78312761861842       -0.16288532840017       -0.28177009131270
H            0.31631605881091        0.62782679818882        0.44203606327827
C           -1.52782861545161       -1.71184036242288        0.57724034132772
C           -0.13752455486582       -1.75384998069445        0.72839052011419
H           -2.12405101981164       -1.46025664956842        1.44043748480175
H           -1.98293437339152       -2.42461579687477       -0.09233114932297
H            0.30360463078022       -1.45452679691120        1.66358547936914
H            0.43643352879392       -2.44842091483394        0.14021162210611
16
 energy: -17.819651956070 gnorm: 0.000220647157 xtb: 6.6.1 (8d0f1dd)
C           -2.09247186578545       -0.04878873550729       -0.47143769886856
C           -1.31184823124562       -0.12055683950831       -1.62704621024188
C            0.06521214240008       -0.12018934174018       -1.54707286422868
C            0.71726245664675       -0.00630482946633       -0.32883463079995
H           -1.79466806259910        0.62623522139557        0.31442627162296
H           -3.16176461049989       -0.16437241585931       -0.56949382727106
H           -1.78048601164911       -0.40379654766936       -2.55945314417042
H            0.63686082480359       -0.40262820450791       -2.42116640423069
H            1.78296258341649       -0.16303309295280       -0.28155095416651
H            0.31614842821816        0.62777150836613        0.44210646472156
C           -1.52767894763651       -1.71193010142623        0.57739560087879
C           -0.13735538624023       -1.75377157330046        0.72824236234300
H           -2.12381140956392       -1.46014922434255        1.44058638195363
H           -1.98291796284613       -2.42461540705754       -0.09216626420799
H            0.30387358710762       -1.45459796098063        1.66344426723898
H            0.43648815547249       -2.44841013044286        0.14001954042857
16
 energy: -17.819653788758 gnorm: 0.000217156907 xtb: 6.6.1 (8d0f1dd)
C           -2.09260935818323       -0.04858483918996       -0.47162576613134
C           -1.31187984295713       -0.12051625579313       -1.62710396728872
C            0.06517730484218       -0.12022179264700       -1.54701328125332
C            0.71709070078003       -0.00649389443435       -0.32866538808322
H           -1.79480358739480        0.62630076407637        0.31434533065452
H           -3.16188487256716       -0.16426175647948       -0.56968856517426
H           -1.78044484594640       -0.40374839314368       -2.55955195324717
H            0.63688854406315       -0.40270884195215       -2.42104809903936
H            1.78279913128278       -0.16318080230800       -0.28133495212640
H            0.31598343223614        0.62771683526881        0.44217548499615
C           -1.52753041279518       -1.71201982268896        0.57754859465722
C           -0.13718768684391       -1.75369299389951        0.72809656446241
H           -2.12357549501780       -1.46004512414740        1.44073224634702
H           -1.98289950579765       -2.42461558540744       -0.09200530911080
H            0.30413826952496       -1.45466635305242        1.66330585701504
H            0.43654391477323       -2.44839881920177        0.13983209432396
16
 energy: -17.819655592005 gnorm: 0.000213910930 xtb: 6.6.1 (8d0f1dd)
C           -2.09274563122338       -0.04838238039479       -0.47181189581237
C           -1.31191141253700       -0.12047576543105       -1.62716109315729
C            0.06514252377190       -0.12025422377224       -1.54695440542468
C            0.71692054108178       -0.00668177075156       -0.32849794436580
H           -1.79493742052602        0.62636553913786        0.31426563895439
H           -3.16200413717954       -0.16415120797515       -0.56988110894269
H           -1.78040462618143       -0.40369993073893       -2.55964973081905
H            0.63691543928918       -0.40278924899908       -2.42093115424588
H            1.78263718283630       -0.16332795355382       -0.28112156409545
H            0.31582057571975        0.62766270289330        0.44224343936196
C           -1.52738308177735       -1.71210926533601        0.57769977133051
C           -0.13702143549092       -1.75361451705236        0.72795263290571
H           -2.12334256826995       -1.45994343840573        1.44087588765563
H           -1.98287990505260       -2.42461616276725       -0.09184716454230
H            0.30439951247845       -1.45473285554969        1.66316955688647
H            0.43660013306005       -2.44838719630359        0.13964802531257
16
 energy: -17.819657366388 gnorm: 0.000210676191 xtb: 6.6.1 (8d0f1dd)
C           -2.09288076660398       -0.04818142548790       -0.47199628115548
C           -1.31194286429742       -0.12043547083546       -1.62721766439626
C            0.06510787037722       -0.12028654728629       -1.54689614904998
C            0.71675186550024       -0.00686836022155       -0.32833211578900
H           -1.79506985280989        0.62642965960611        0.31418692657810
H           -3.16212245505085       -0.16404101035619       -0.57007178261733
H           -1.78036511200905       -0.40365141028419       -2.55974659164400
H            0.63694173649892       -0.40286922360838       -2.42081541571632
H            1.78247664677329       -0.16347427649382       -0.28091046177825
H            0.31565951880583        0.62760903663245        0.44231053749003
C           -1.52723690653352       -1.71219823183138        0.57784938100669
C           -0.13685654420504       -1.75353635932635        0.72781031544684
H           -2.12311214112201       -1.45984354192682        1.44101773827792
H           -1.98285963197128       -2.42461694856833       -0.09169120790240
H            0.30465786650903       -1.45479808554074        1.66303502182975
H            0.43665646013775       -2.44837547947125        0.13946664042141
16
 energy: -17.819659112474 gnorm: 0.000207081724 xtb: 6.6.1 (8d0f1dd)
C           -2.09301480162853       -0.04798202043000       -0.47217904179309
C           -1.31197413114317       -0.12039542943560       -1.62727372842228
C            0.06507340287384       -0.12031870776585       -1.54683846028379
C            0.71658462027785       -0.00705359812768       -0.32816778890441
H           -1.79520103107122        0.62649313842555        0.31410906468523
H           -3.16223984056370       -0.16393131665283       -0.57026078069230
H           -1.78032613587994       -0.40360296022506       -2.55984261267258
H            0.63696759256750       -0.40294866246407       -2.42070078417087
H            1.78231747848247       -0.16361961708401       -0.28070143797792
H            0.31550008628542        0.62755583776508        0.44237688174752
C           -1.52709189977884       -1.71228663699892        0.57799760134444
C           -0.13669299619154       -1.75345862304041        0.72766943279861
H           -2.12288394699364       -1.45974510384519        1.44115810310049
H           -1.98283901436520       -2.42461788051598       -0.09153702144165
H            0.30491364990234       -1.45486235399254        1.66290199200793
H            0.43671265722561       -2.44836374061259        0.13928747167638
16
 energy: -17.819660671083 gnorm: 0.000418831882 xtb: 6.6.1 (8d0f1dd)
C           -2.09289166030295       -0.04751597909751       -0.47188007821782
C           -1.31222733869582       -0.11995715991615       -1.62716218989521
C            0.06484123062141       -0.12052081102944       -1.54715086753876
C            0.71670303212745       -0.00765479453523       -0.32859669832834
H           -1.79457738934312        0.62623440520417        0.31482641753690
H           -3.16217897149134       -0.16314900333934       -0.56960930089960
H           -1.78104685159478       -0.40276510334263       -2.55961514085225
H            0.63626342326212       -0.40356245138832       -2.42118800046272
H            1.78237949968622       -0.16468330392271       -0.28140054366771
H            0.31616763531828        0.62750481979382        0.44179450871600
C           -1.52699912636581       -1.71292238974376        0.57752031170723
C           -0.13671445746836       -1.75270949430944        0.72839118762298
H           -2.12405305279401       -1.46151681016079        1.44010257370586
H           -1.98131930932960       -2.42501200198530       -0.09324325334185
H            0.30359077284383       -1.45324250337436        1.66398366043868
H            0.43786825352573       -2.44766509385315        0.14122630447831
16
 energy: -17.819662444597 gnorm: 0.000330636423 xtb: 6.6.1 (8d0f1dd)
C           -2.09318297141055       -0.04742083483923       -0.47224538226593
C           -1.31219581982333       -0.12012535121500       -1.62726535691347
C            0.06486087730765       -0.12052741849926       -1.54687666517850
C            0.71639359873079       -0.00762914907357       -0.32814020995679
H           -1.79503003344583        0.62649017976399        0.31437830890783
H           -3.16242641500771       -0.16327593351686       -0.57012352917624
H           -1.78068348404113       -0.40308906364621       -2.55984427110690
H            0.63660583305600       -0.40345782253911       -2.42073532656903
H            1.78210816372003       -0.16440691994308       -0.28080829697211
H            0.31568491827922        0.62750996084464        0.44217601201485
C           -1.52679646546139       -1.71276965294806        0.57785733346368
C           -0.13643832273468       -1.75296314254311        0.72784858265393
H           -2.12319081222815       -1.46053476583881        1.44066084742564
H           -1.98192596497698       -2.42487796214077       -0.09231899749945
H            0.30454298376395       -1.45403483643631        1.66329266764919
H            0.43747960427134       -2.44802496242937        0.14014317452500
16
 energy: -17.819660811892 gnorm: 0.000432067104 xtb: 6.6.1 (8d0f1dd)
C           -2.09313585758848       -0.04770240925484       -0.47226454711205
C           -1.31208497158234       -0.12028656965617       -1.62728826466525
C            0.06496408358992       -0.12039673767844       -1.54683994907372
C            0.71643533544653       -0.00731140346812       -0.32810809919409
H           -1.79517871298449        0.62650245400141        0.31418823407692
H           -3.16235564791129       -0.16362357530097       -0.57026767977782
H           -1.78046286624216       -0.40340620320184       -2.55987069259083
H            0.63682205331495       -0.40316818290915       -2.42068137460923
H            1.78216705567237       -0.16397527417998       -0.28066434496788
H            0.31549762936030        0.62754172841566        0.44231761027564
C           -1.52689287475374       -1.71246968817152        0.57796137901245
C           -0.13651334402943       -1.75329516501756        0.72772422389127
H           -2.12290778087904       -1.45997516946939        1.44096509608038
H           -1.98246229679763       -2.42466971096826       -0.09181582807047
H            0.30486801207254       -1.45460439097602        1.66304539126263
H            0.43704587331123       -2.44829737716490        0.13959773646384
16
 energy: -17.819662510799 gnorm: 0.000349404971 xtb: 6.6.1 (8d0f1dd)
C           -2.09325022371944       -0.04755643601212       -0.47247541206843
C           -1.31206476403382       -0.12027404993356       -1.62736121632753
C            0.06497952403086       -0.12041215290629       -1.54675326046451
C            0.71628669823287       -0.00746084851719       -0.32790365209132
H           -1.79536837834118        0.62659996150728        0.31403970567401
H           -3.16245530061488       -0.16363411472749       -0.57052430313833
H           -1.78033250736393       -0.40342210482216       -2.55999472232606
H            0.63693938068377       -0.40318084408099       -2.42052325387243
H            1.78202624412683       -0.16400246344315       -0.28039367430072
H            0.31528746493717        0.62746147018892        0.44244169786898
C           -1.52681603618923       -1.71253150906296        0.57820588850101
C           -0.13639464235069       -1.75322939299554        0.72747384910996
H           -2.12259134747144       -1.45975599782620        1.44128702196696
H           -1.98262986785791       -2.42468791167529       -0.09144520202512
H            0.30523882197883       -1.45478510138984        1.66275633994365
H            0.43695062395141       -2.44826617930352        0.13916908455166
16
 energy: -17.819664177184 gnorm: 0.000172124645 xtb: 6.6.1 (8d0f1dd)
C           -2.09340047855930       -0.04737386010370       -0.47268382160171
C           -1.31208687030087       -0.12025506420967       -1.62742524448438
C            0.06495292080080       -0.12043159392424       -1.54668551584320
C            0.71610687417175       -0.00762475979507       -0.32771786337265
H           -1.79553584010645        0.62666261736941        0.31392988965234
H           -3.16258259934521       -0.16355234692020       -0.57075776491379
H           -1.78026350505725       -0.40340916444845       -2.56010447998008
H            0.63699398144586       -0.40322426445477       -2.42039285103217
H            1.78185954972078       -0.16410876893715       -0.28014774369433
H            0.31509125342255        0.62740849462737        0.44253309900727
C           -1.52666140940546       -1.71258405098577        0.57838258832944
C           -0.13621736907135       -1.75319006660797        0.72730938710520
H           -2.12230072748079       -1.45957249621351        1.44147832271535
H           -1.98267232860679       -2.42464945412024       -0.09121416956631
H            0.30556417057855       -1.45493783051160        1.66258835764230
H            0.43695806779240       -2.44829506576455        0.13890670103849
16
 energy: -17.819665815281 gnorm: 0.000201754298 xtb: 6.6.1 (8d0f1dd)
C           -2.09353352598873       -0.04718931564008       -0.47287362968838
C           -1.31210852564311       -0.12022554346333       -1.62748470058772
C            0.06492729468023       -0.12045591264372       -1.54662276742943
C            0.71593949968219       -0.00779427979915       -0.32754512244989
H           -1.79568327272629        0.62673141741189        0.31383448434106
H           -3.16269731945072       -0.16346778651721       -0.57096477041512
H           -1.78020478478246       -0.40338199486479       -2.56020575052233
H            0.63703898697381       -0.40328417974150       -2.42027008900867
H            1.78170168961883       -0.16422432398811       -0.27992165460924
H            0.31491354891573        0.62735309931789        0.44261292612045
C           -1.52652332320316       -1.71265553525784        0.57854683481869
C           -0.13605715377633       -1.75312948476655        0.72715050105412
H           -2.12204489229348       -1.45943227519241        1.44165206510997
H           -1.98269472157602       -2.42464024278397       -0.09101218997042
H            0.30585200332426       -1.45504466962719        1.66242789300493
H            0.43698018624448       -2.44829664744404        0.13867486123375
16
 energy: -17.819667428001 gnorm: 0.000192256087 xtb: 6.6.1 (8d0f1dd)
C           -2.09366497690256       -0.04700246410607       -0.47305730062021
C           -1.31213390875099       -0.12019227721156       -1.62754187374273
C            0.06489826894728       -0.12048262762295       -1.54656362754388
C            0.71577509699323       -0.00796671097619       -0.32737942154959
H           -1.79582171601962        0.62679596976868        0.31374804086327
H           -3.16281130682058       -0.16337411478680       -0.57116115194701
H           -1.78015544120416       -0.40334650208658       -2.56030314933797
H            0.63707504318999       -0.40335034876943       -2.42015342654914
H            1.78154613807522       -0.16434972284948       -0.27970700949380
H            0.31474642992619        0.62729969331431        0.44268550525986
C           -1.52638416471476       -1.71273163419989        0.57870133457740