16
 energy: -17.812259184350 gnorm: 0.000978524434 xtb: 6.6.1 (8d0f1dd)
C           -2.14082098283245        0.05597925014192       -0.54493216825706
C           -1.33608680352138       -0.10898029611721       -1.62145194627262
C            0.07613798206143       -0.12115648028300       -1.51990864546175
C            0.72159946768497        0.03210530178694       -0.33955854968471
H           -1.81024681606187        0.58868225055675        0.32737422358920
H           -3.20802333746255       -0.06480033479029       -0.63755619982783
H           -1.76604980203377       -0.44538175158434       -2.55572922509625
H            0.62948078272139       -0.46579358310807       -2.38360083941256
H            1.78873601640264       -0.10768790941276       -0.27853364949196
H            0.27861929265822        0.57033345690382        0.47774977928595
C           -1.48405477727094       -1.81179243701449        0.65114452754092
C           -0.13705720529631       -1.82439372935566        0.74984636465253
H           -2.09538103111794       -1.43196152273296        1.45140832225875
H           -1.98703841828205       -2.40975131685256       -0.08839908723331
H            0.35844028185866       -1.45325744939743        1.63024703954305
H            0.45755104049183       -2.43128112374079        0.08989894487016
16
 energy: -17.812258432874 gnorm: 0.006095292798 xtb: 6.6.1 (8d0f1dd)
C           -2.14083911671079        0.05604213209659       -0.54496880909317
C           -1.33608585764578       -0.10897586795507       -1.62145319005741
C            0.07613868414056       -0.12116108285668       -1.51990713936994
C            0.72157529760390        0.03204282151961       -0.33952490561452
H           -1.81024799754719        0.58870061381383        0.32736727606947
H           -3.20802298081204       -0.06479692316165       -0.63755714776561
H           -1.76604882951096       -0.44537722216939       -2.55573119144640
H            0.62948138327474       -0.46579808187719       -2.38359870489986
H            1.78873642108810       -0.10769123191761       -0.27853277766493
H            0.27861719334320        0.57031536654141        0.47775639637431
C           -1.48403863814287       -1.81185985518041        0.65118600899765
C           -0.13703397745498       -1.82432648150248        0.74980753208704
H           -2.09538269942560       -1.43197625405976        1.45141669808398
H           -1.98703690791752       -2.40976830962900       -0.08839224976293
H            0.35843998914098       -1.45324301591344        1.63023864301819
H            0.45755372657615       -2.43126428274889        0.08989245204662
16
 energy: -17.812259118521 gnorm: 0.002031948499 xtb: 6.6.1 (8d0f1dd)
C           -2.14082993495923        0.05600602357326       -0.54494781230718
C           -1.33608761002036       -0.10897816562794       -1.62145292145366
C            0.07613702932843       -0.12115874450231       -1.51990764882215
C            0.72158812863645        0.03207872638504       -0.33954436131652
H           -1.81024997445103        0.58869502707500        0.32736786948161
H           -3.20802632357809       -0.06479293286139       -0.63755999621996
H           -1.76605021726287       -0.44537783621553       -2.55573153636055
H            0.62947995943022       -0.46579743276899       -2.38359856579483
H            1.78873264916483       -0.10769524978813       -0.27853044842013
H            0.27861543359604        0.57032085486602        0.47775559483624
C           -1.48404539616435       -1.81182016022065        0.65116161481401
C           -0.13704496039781       -1.82436604818058        0.74983072503058
H           -2.09537851939406       -1.43196950861071        1.45141258620634
H           -1.98703403657927       -2.40976021314980       -0.08839505859033
H            0.35844343230009       -1.45324969118004        1.63024325420569
H            0.45755603035090       -2.43127232379338        0.08989559571335
