      -----------------------------------------------------------      
     |                   =====================                   |     
     |                           x T B                           |     
     |                   =====================                   |     
     |                         S. Grimme                         |     
     |          Mulliken Center for Theoretical Chemistry        |     
     |                    University of Bonn                     |     
      -----------------------------------------------------------      

   * xtb version 6.6.1 (8d0f1dd) compiled by 'stahn@M-Bot' on 2023-08-01

   xtb is free software: you can redistribute it and/or modify it under
   the terms of the GNU Lesser General Public License as published by
   the Free Software Foundation, either version 3 of the License, or
   (at your option) any later version.
   
   xtb is distributed in the hope that it will be useful,
   but WITHOUT ANY WARRANTY; without even the implied warranty of
   MERCHANTABILITY or FITNESS FOR A PARTICULAR PURPOSE.  See the
   GNU Lesser General Public License for more details.
   
   Cite this work as:
   * C. Bannwarth, E. Caldeweyher, S. Ehlert, A. Hansen, P. Pracht,
     J. Seibert, S. Spicher, S. Grimme, WIREs Comput. Mol. Sci., 2020, 11,
     e01493. DOI: 10.1002/wcms.1493
   
   for GFN2-xTB:
   * C. Bannwarth, S. Ehlert and S. Grimme., J. Chem. Theory Comput., 2019,
     15, 1652-1671. DOI: 10.1021/acs.jctc.8b01176
   for GFN1-xTB:
   * S. Grimme, C. Bannwarth, P. Shushkov, J. Chem. Theory Comput., 2017,
     13, 1989-2009. DOI: 10.1021/acs.jctc.7b00118
   for GFN0-xTB:
   * P. Pracht, E. Caldeweyher, S. Ehlert, S. Grimme, ChemRxiv, 2019, preprint.
     DOI: 10.26434/chemrxiv.8326202.v1
   for GFN-FF:
   * S. Spicher and S. Grimme, Angew. Chem. Int. Ed., 2020, 59, 15665-15673.
     DOI: 10.1002/anie.202004239
   
   for ALPB and GBSA implicit solvation:
   * S. Ehlert, M. Stahn, S. Spicher, S. Grimme, J. Chem. Theory Comput.,
     2021, 17, 4250-4261. DOI: 10.1021/acs.jctc.1c00471
   
   for DFT-D4:
   * E. Caldeweyher, C. Bannwarth and S. Grimme, J. Chem. Phys., 2017,
     147, 034112. DOI: 10.1063/1.4993215
   * E. Caldeweyher, S. Ehlert, A. Hansen, H. Neugebauer, S. Spicher,
     C. Bannwarth and S. Grimme, J. Chem. Phys., 2019, 150, 154122.
     DOI: 10.1063/1.5090222
   * E. Caldeweyher, J.-M. Mewes, S. Ehlert and S. Grimme, Phys. Chem. Chem. Phys.
     2020, 22, 8499-8512. DOI: 10.1039/D0CP00502A
   
   for sTDA-xTB:
   * S. Grimme and C. Bannwarth, J. Chem. Phys., 2016, 145, 054103.
     DOI: 10.1063/1.4959605
   
   in the mass-spec context:
   * V. Asgeirsson, C. Bauer and S. Grimme, Chem. Sci., 2017, 8, 4879.
     DOI: 10.1039/c7sc00601b
   * J. Koopman and S. Grimme, ACS Omega 2019, 4, 12, 15120-15133.
     DOI: 10.1021/acsomega.9b02011
   
   for metadynamics refer to:
   * S. Grimme, J. Chem. Theory Comput., 2019, 155, 2847-2862
     DOI: 10.1021/acs.jctc.9b00143
   
   for SPH calculations refer to:
   * S. Spicher and S. Grimme, J. Chem. Theory Comput., 2021, 17, 1701-1714
     DOI: 10.1021/acs.jctc.0c01306
   
   with help from (in alphabetical order)
   P. Atkinson, C. Bannwarth, F. Bohle, G. Brandenburg, E. Caldeweyher
   M. Checinski, S. Dohm, S. Ehlert, S. Ehrlich, I. Gerasimov, C. Hölzer
   A. Katbashev, J. Koopman, C. Lavigne, S. Lehtola, F. März, M. Müller,
   F. Musil, H. Neugebauer, J. Pisarek, C. Plett, P. Pracht, F. Pultar,
   J. Seibert, P. Shushkov, S. Spicher, M. Stahn, M. Steiner, T. Strunk,
   J. Stückrath, T. Rose, and J. Unsleber
   
 * started run on 2024/02/16 at 00:22:31.723     

           -------------------------------------------------
          |                Calculation Setup                |
           -------------------------------------------------

          program call               : xtb xtbopt.xyz -I control --opt --tight
          coordinate file            : xtbopt.xyz
          omp threads                :                     2

   ID    Z sym.   atoms
    1    6 C      1-4, 11, 12
    2    1 H      5-10, 13-16
constraining bond 1 11 to    2.3131373 Å, actual value:    2.3131177 Å
constraining bond 4 12 to    2.3174539 Å, actual value:    2.3174736 Å

molecular fragmentation (1/2 indicates fragments):
1111111111222222
# atoms in fragment 1/2:    10     6
 fragment masses (1/2) :       54.09       28.05
CMA distance (Bohr)    :   4.690
constraining FC (au)   :  6.0000
########################################################################
[WARNING] Please study the warnings concerning your input carefully
-1- prog_main_parseArguments: Unknown option '--tight' provided
########################################################################

           -------------------------------------------------
          |                 G F N 2 - x T B                 |
           -------------------------------------------------

        Reference                      10.1021/acs.jctc.8b01176
      * Hamiltonian:
        H0-scaling (s, p, d)           1.850000    2.230000    2.230000
        zeta-weighting                 0.500000
      * Dispersion:
        s8                             2.700000
        a1                             0.520000
        a2                             5.000000
        s9                             5.000000
      * Repulsion:
        kExp                           1.500000    1.000000
        rExp                           1.000000
      * Coulomb:
        alpha                          2.000000
        third order                    shell-resolved
        anisotropic                    true
        a3                             3.000000
        a5                             4.000000
        cn-shift                       1.200000
        cn-exp                         4.000000
        max-rad                        5.000000

q/qsh data taken from xtbrestart
CAMM data taken from xtbrestart

          ...................................................
          :                      SETUP                      :
          :.................................................:
          :  # basis functions                  34          :
          :  # atomic orbitals                  34          :
          :  # shells                           22          :
          :  # electrons                        34          :
          :  max. iterations                   250          :
          :  Hamiltonian                  GFN2-xTB          :
          :  restarted?                       true          :
          :  GBSA solvation                  false          :
          :  PC potential                    false          :
          :  electronic temp.          300.0000000     K    :
          :  accuracy                    1.0000000          :
          :  -> integral cutoff          0.2500000E+02      :
          :  -> integral neglect         0.1000000E-07      :
          :  -> SCF convergence          0.1000000E-05 Eh   :
          :  -> wf. convergence          0.1000000E-03 e    :
          :  Broyden damping             0.4000000          :
          ...................................................

 iter      E             dE          RMSdq      gap      omega  full diag
   1    -18.1537481 -0.181537E+02  0.814E-08    3.85       0.0  T
   2    -18.1537481 -0.248690E-13  0.729E-08    3.85  100000.0  T
   3    -18.1537481  0.710543E-14  0.169E-08    3.85  100000.0  T

   *** convergence criteria satisfied after 3 iterations ***

         #    Occupation            Energy/Eh            Energy/eV
      -------------------------------------------------------------
         1        2.0000           -0.6208623             -16.8945
       ...           ...                  ...                  ...
        11        2.0000           -0.4668318             -12.7031
        12        2.0000           -0.4543961             -12.3647
        13        2.0000           -0.4374732             -11.9043
        14        2.0000           -0.4291160             -11.6768
        15        2.0000           -0.4210695             -11.4579
        16        2.0000           -0.3823004             -10.4029
        17        2.0000           -0.3789410             -10.3115 (HOMO)
        18                         -0.2376251              -6.4661 (LUMO)
        19                         -0.2033123              -5.5324
        20                         -0.1266888              -3.4474
        21                          0.1231818               3.3519
        22                          0.1417855               3.8582
       ...                                ...                  ...
        34                          0.6208034              16.8929
      -------------------------------------------------------------
                  HL-Gap            0.1413160 Eh            3.8454 eV
             Fermi-level           -0.3082830 Eh           -8.3888 eV

 SCC (total)                   0 d,  0 h,  0 min,  0.017 sec
 SCC setup                      ...        0 min,  0.001 sec (  8.450%)
 Dispersion                     ...        0 min,  0.000 sec (  1.532%)
 classical contributions        ...        0 min,  0.000 sec (  0.356%)
 integral evaluation            ...        0 min,  0.002 sec ( 11.310%)
 iterations                     ...        0 min,  0.007 sec ( 38.686%)
 molecular gradient             ...        0 min,  0.005 sec ( 29.410%)
 printout                       ...        0 min,  0.002 sec ( 10.022%)

         :::::::::::::::::::::::::::::::::::::::::::::::::::::
         ::                     SUMMARY                     ::
         :::::::::::::::::::::::::::::::::::::::::::::::::::::
         :: total energy             -17.812259184350 Eh    ::
         :: gradient norm              0.000978524435 Eh/a0 ::
         :: HOMO-LUMO gap              3.845403529901 eV    ::
         ::.................................................::
         :: SCC energy               -18.153748144845 Eh    ::
         :: -> isotropic ES            0.002969090338 Eh    ::
         :: -> anisotropic ES          0.006248372845 Eh    ::
         :: -> anisotropic XC          0.017269554860 Eh    ::
         :: -> dispersion             -0.011139683802 Eh    ::
         :: repulsion energy           0.341460574295 Eh    ::
         :: add. restraining           0.000000016582 Eh    ::
         :: total charge              -0.000000000000 e     ::
         :::::::::::::::::::::::::::::::::::::::::::::::::::::

      ----------------------------------------------------------- 
     |                   =====================                   |
     |                        A N C O P T                        |
     |                   =====================                   |
     |               Approximate Normal Coordinate               |
     |                Rational Function Optimizer                |
      ----------------------------------------------------------- 

          ...................................................
          :                      SETUP                      :
          :.................................................:
          :   optimization level            normal          :
          :   max. optcycles                   200          :
          :   ANC micro-cycles                  20          :
          :   degrees of freedom                42          :
          :.................................................:
          :   RF solver                   davidson          :
          :   write xtbopt.log                true          :
          :   linear?                        false          :
          :   energy convergence         0.5000000E-05 Eh   :
          :   grad. convergence          0.1000000E-02 Eh/α :
          :   maxmium RF displ.          1.0000000          :
          :   Hlow (freq-cutoff)         0.1000000E-01      :
          :   Hmax (freq-cutoff)         5.0000000          :
          :   S6 in model hess.         20.0000000          :
          ...................................................

generating ANC from model Hessian ...
Using Lindh-Hessian (1995)
 Shifting diagonal of input Hessian by   8.861423300149489E-003
 Lowest  eigenvalues of input Hessian
    0.000000    0.000000    0.000000    0.000000    0.000000    0.000000
    0.010000    0.010332    0.011985    0.012870    0.016681    0.020704
    0.023293    0.025699    0.025979    0.032461    0.032722    0.050170
 Highest eigenvalues
    1.503856    1.771576    1.877373    1.959093   24.175933   24.211831
 

........................................................................
.............................. CYCLE    1 ..............................
........................................................................

 iter      E             dE          RMSdq      gap      omega  full diag
   1    -18.1537481 -0.181537E+02  0.881E-09    3.85       0.0  T
   2    -18.1537481  0.355271E-14  0.506E-09    3.85  100000.0  T
   3    -18.1537481  0.710543E-14  0.379E-09    3.85  100000.0  T
     SCC iter.                  ...        0 min,  0.004 sec
     gradient                   ...        0 min,  0.006 sec
 * total energy  :   -17.8122592 Eh     change        0.7105427E-14 Eh
   gradient norm :     0.0009785 Eh/α   predicted     0.0000000E+00 (-100.00%)
   displ. norm   :     0.0003074 α      lambda       -0.1925867E-06
   maximum displ.:     0.0002935 α      in ANC's #42, #9, #3, ...

........................................................................
.............................. CYCLE    2 ..............................
........................................................................

 iter      E             dE          RMSdq      gap      omega  full diag
   1    -18.1537482 -0.181537E+02  0.368E-04    3.85       0.0  T
   2    -18.1537482 -0.120391E-09  0.271E-04    3.85      92.3  T
   3    -18.1537482 -0.248306E-09  0.149E-04    3.85     167.3  T
     SCC iter.                  ...        0 min,  0.004 sec
     gradient                   ...        0 min,  0.006 sec
 * total energy  :   -17.8122584 Eh     change        0.7514763E-06 Eh
   gradient norm :     0.0060953 Eh/α   predicted    -0.9582866E-07 (-112.75%)
   displ. norm   :     0.0001751 α      lambda       -0.1027198E-05
   maximum displ.:     0.0001686 α      in ANC's #42, #3, #5, ...

........................................................................
.............................. CYCLE    3 ..............................
........................................................................

 iter      E             dE          RMSdq      gap      omega  full diag
   1    -18.1537482 -0.181537E+02  0.223E-04    3.85       0.0  T
   2    -18.1537482 -0.362519E-10  0.164E-04    3.85     152.6  T
   3    -18.1537482 -0.815632E-10  0.916E-05    3.85     272.8  T
     SCC iter.                  ...        0 min,  0.007 sec
     gradient                   ...        0 min,  0.006 sec
 * total energy  :   -17.8122591 Eh     change       -0.6856477E-06 Eh
   gradient norm :     0.0020319 Eh/α   predicted    -0.5141808E-06 ( -25.01%)
   displ. norm   :     0.0000908 α      lambda       -0.1730918E-06
   maximum displ.:     0.0000843 α      in ANC's #42, #9, #3, ...

........................................................................
.............................. CYCLE    4 ..............................
........................................................................

 iter      E             dE          RMSdq      gap      omega  full diag
   1    -18.1537482 -0.181537E+02  0.108E-04    3.85       0.0  T
   2    -18.1537482 -0.119584E-10  0.788E-05    3.85     317.1  T
   3    -18.1537482 -0.225064E-10  0.433E-05    3.85     576.9  T
     SCC iter.                  ...        0 min,  0.003 sec
