 Entering Gaussian System, Link 0=/opt/g16C01/g16
 Input=Freq_TS.gjf
 Output=Freq_TS.log
 Initial command:
 /opt/g16C01/l1.exe "/scratch/Gau-374490.inp" -scrdir="/scratch/"
 Entering Link 1 = /opt/g16C01/l1.exe PID=    374491.
  
 Copyright (c) 1988-2019, Gaussian, Inc.  All Rights Reserved.
  
 This is part of the Gaussian(R) 16 program.  It is based on
 the Gaussian(R) 09 system (copyright 2009, Gaussian, Inc.),
 the Gaussian(R) 03 system (copyright 2003, Gaussian, Inc.),
 the Gaussian(R) 98 system (copyright 1998, Gaussian, Inc.),
 the Gaussian(R) 94 system (copyright 1995, Gaussian, Inc.),
 the Gaussian 92(TM) system (copyright 1992, Gaussian, Inc.),
 the Gaussian 90(TM) system (copyright 1990, Gaussian, Inc.),
 the Gaussian 88(TM) system (copyright 1988, Gaussian, Inc.),
 the Gaussian 86(TM) system (copyright 1986, Carnegie Mellon
 University), and the Gaussian 82(TM) system (copyright 1983,
 Carnegie Mellon University). Gaussian is a federally registered
 trademark of Gaussian, Inc.
  
 This software contains proprietary and confidential information,
 including trade secrets, belonging to Gaussian, Inc.
  
 This software is provided under written license and may be
 used, copied, transmitted, or stored only in accord with that
 written license.
  
 The following legend is applicable only to US Government
 contracts under FAR:
  
                    RESTRICTED RIGHTS LEGEND
  
 Use, reproduction and disclosure by the US Government is
 subject to restrictions as set forth in subparagraphs (a)
 and (c) of the Commercial Computer Software - Restricted
 Rights clause in FAR 52.227-19.
  
 Gaussian, Inc.
 340 Quinnipiac St., Bldg. 40, Wallingford CT 06492
  
  
 ---------------------------------------------------------------
 Warning -- This program may not be used in any manner that
 competes with the business of Gaussian, Inc. or will provide
 assistance to any competitor of Gaussian, Inc.  The licensee
 of this program is prohibited from giving any competitor of
 Gaussian, Inc. access to this program.  By using this program,
 the user acknowledges that Gaussian, Inc. is engaged in the
 business of creating and licensing software in the field of
 computational chemistry and represents and warrants to the
 licensee that it is not a competitor of Gaussian, Inc. and that
 it will not use this program in any manner prohibited above.
 ---------------------------------------------------------------
  

 Cite this work as:
 Gaussian 16, Revision C.01,
 M. J. Frisch, G. W. Trucks, H. B. Schlegel, G. E. Scuseria, 
 M. A. Robb, J. R. Cheeseman, G. Scalmani, V. Barone, 
 G. A. Petersson, H. Nakatsuji, X. Li, M. Caricato, A. V. Marenich, 
 J. Bloino, B. G. Janesko, R. Gomperts, B. Mennucci, H. P. Hratchian, 
 J. V. Ortiz, A. F. Izmaylov, J. L. Sonnenberg, D. Williams-Young, 
 F. Ding, F. Lipparini, F. Egidi, J. Goings, B. Peng, A. Petrone, 
 T. Henderson, D. Ranasinghe, V. G. Zakrzewski, J. Gao, N. Rega, 
 G. Zheng, W. Liang, M. Hada, M. Ehara, K. Toyota, R. Fukuda, 
 J. Hasegawa, M. Ishida, T. Nakajima, Y. Honda, O. Kitao, H. Nakai, 
 T. Vreven, K. Throssell, J. A. Montgomery, Jr., J. E. Peralta, 
 F. Ogliaro, M. J. Bearpark, J. J. Heyd, E. N. Brothers, K. N. Kudin, 
 V. N. Staroverov, T. A. Keith, R. Kobayashi, J. Normand, 
 K. Raghavachari, A. P. Rendell, J. C. Burant, S. S. Iyengar, 
 J. Tomasi, M. Cossi, J. M. Millam, M. Klene, C. Adamo, R. Cammi, 
 J. W. Ochterski, R. L. Martin, K. Morokuma, O. Farkas, 
 J. B. Foresman, and D. J. Fox, Gaussian, Inc., Wallingford CT, 2019.
 
 ******************************************
 Gaussian 16:  ES64L-G16RevC.01  3-Jul-2019
                26-Nov-2023 
 ******************************************
 %nprocs=1
 Will use up to    1 processors via shared memory.
 -------------------------------------------
 # freq=noraman external="xtb-gaussian -P 4"
 -------------------------------------------
 1/10=4,18=10,30=1,38=1/1,3;
 2/12=2,17=6,18=5,40=1/2;
 3/11=9,25=1,30=1,41=9900000,43=2,71=2,140=1/1;
 4/20=17,22=2,24=3,113=1,114=1/2;
 6/7=2,8=2,9=2,10=2/1;
 7/8=1,25=1,44=-1/16;
 1/10=4,18=10,30=1/3;
 99//99;
 ----
 conf
 ----
 Symbolic Z-matrix:
 Charge =  0 Multiplicity = 1
 C                     0.71958   0.16163   1.38108 
 C                     1.9757   -0.47719   1.11211 
 C                     2.77603  -0.20562   0.01259 
 C                     0.36938   1.35942   0.51459 
 H                     2.35146  -1.16702   1.85326 
 O                     3.85005  -0.81026  -0.232 
 C                     2.35086   0.9347   -0.91914 
 C                     0.84851   1.21117  -0.93465 
 C                     0.56594   2.52502  -1.67178 
 H                     0.94257   2.47118  -2.69032 
 H                    -0.50372   2.71669  -1.70753 
 H                     1.05202   3.35993  -1.17229 
 C                     0.11936   0.07486  -1.65378 
 H                     0.36442   0.09233  -2.71333 
 H                     0.42578  -0.88422  -1.24912 
 H                    -0.9561    0.17583  -1.5385 
 H                     2.71348   0.705    -1.92391 
 H                    -0.71075   1.50147   0.55346 
 H                     0.85266   2.22454   0.9717 
 H                     2.89131   1.82392  -0.57722 
 O                     0.49829   0.50141   2.74739 
 S                     1.35244  -0.11896   3.95274 
 O                     2.67043   0.44439   3.99883 
 O                     1.26106  -1.55558   3.94435 
 C                     0.35507   0.54358   5.28389 
 H                    -0.6392    0.12903   5.19421 
 H                     0.3521    1.6184    5.16731 
 H                     0.82098   0.2523    6.21671 
 C                     0.41286  -2.95194   1.37957 
 N                    -0.44781  -1.9778    1.68247 
 H                     1.16332  -2.89355   0.61659 
 C                    -1.22601  -2.3818    2.72671 
 O                    -0.50304  -0.77925   1.10373 
 C                    -0.8198   -3.63864   3.04925 
 H                    -1.99573  -1.7568    3.1286 
 H                    -1.17475  -4.3039    3.80985 
 N                     0.19931  -3.97379   2.21139 
 C                     0.94308  -5.20562   2.25802 
 H                     0.25498  -6.05136   2.27134 
 H                     1.58999  -5.27352   1.38589 
 H                     1.55908  -5.22902   3.15874 
 

 GradGradGradGradGradGradGradGradGradGradGradGradGradGradGradGradGradGrad
 Berny optimization.
 Initialization pass.
 Trust Radius=3.00D-01 FncErr=1.00D-07 GrdErr=1.00D-07 EigMax=2.50D+02 EigMin=1.00D-04
 Number of steps in this run=      2 maximum allowed number of steps=      2.
 GradGradGradGradGradGradGradGradGradGradGradGradGradGradGradGradGradGrad

                          Input orientation:                          
 ---------------------------------------------------------------------
 Center     Atomic      Atomic             Coordinates (Angstroms)
 Number     Number       Type             X           Y           Z
 ---------------------------------------------------------------------
      1          6           0        0.719584    0.161634    1.381082
      2          6           0        1.975698   -0.477189    1.112114
      3          6           0        2.776028   -0.205620    0.012587
      4          6           0        0.369381    1.359425    0.514593
      5          1           0        2.351463   -1.167022    1.853263
      6          8           0        3.850050   -0.810265   -0.232000
      7          6           0        2.350863    0.934699   -0.919139
      8          6           0        0.848513    1.211165   -0.934650
      9          6           0        0.565936    2.525016   -1.671775
     10          1           0        0.942574    2.471182   -2.690320
     11          1           0       -0.503722    2.716688   -1.707529
     12          1           0        1.052024    3.359935   -1.172293
     13          6           0        0.119361    0.074856   -1.653784
     14          1           0        0.364422    0.092328   -2.713326
     15          1           0        0.425779   -0.884218   -1.249115
     16          1           0       -0.956098    0.175834   -1.538503
     17          1           0        2.713480    0.704999   -1.923906
     18          1           0       -0.710752    1.501467    0.553464
     19          1           0        0.852656    2.224538    0.971702
     20          1           0        2.891307    1.823925   -0.577224
     21          8           0        0.498294    0.501408    2.747394
     22         16           0        1.352440   -0.118961    3.952737
     23          8           0        2.670430    0.444390    3.998827
     24          8           0        1.261055   -1.555582    3.944348
     25          6           0        0.355071    0.543584    5.283892
     26          1           0       -0.639202    0.129030    5.194209
     27          1           0        0.352099    1.618397    5.167310
     28          1           0        0.820980    0.252304    6.216705
     29          6           0        0.412858   -2.951945    1.379573
     30          7           0       -0.447811   -1.977802    1.682471
     31          1           0        1.163320   -2.893554    0.616591
     32          6           0       -1.226007   -2.381796    2.726713
     33          8           0       -0.503037   -0.779250    1.103733
     34          6           0       -0.819799   -3.638640    3.049250
     35          1           0       -1.995731   -1.756803    3.128601
     36          1           0       -1.174747   -4.303904    3.809847
     37          7           0        0.199313   -3.973789    2.211388
     38          6           0        0.943080   -5.205619    2.258022
     39          1           0        0.254983   -6.051361    2.271336
     40          1           0        1.589994   -5.273522    1.385891
     41          1           0        1.559080   -5.229019    3.158735
 ---------------------------------------------------------------------
                    Distance matrix (angstroms):
                    1          2          3          4          5
     1  C    0.000000
     2  C    1.434664   0.000000
     3  C    2.497322   1.386808   0.000000
     4  C    1.519259   2.512058   2.914331   0.000000
     5  H    2.156689   1.079986   2.119583   3.479025   0.000000
     6  O    3.653278   2.330403   1.256559   4.168934   2.592558
     7  C    2.923990   2.502032   1.532712   2.482388   3.478999
     8  C    2.545733   2.882764   2.572908   1.533576   3.960693
     9  C    3.863822   4.330208   3.895890   2.485446   5.407878
    10  H    4.686155   4.921254   4.222858   3.440352   5.988792
    11  H    4.190977   4.929377   4.717567   2.746324   5.992872
    12  H    4.106017   4.560176   4.133922   2.704372   5.597845
    13  C    3.094868   3.376527   3.148546   2.532684   4.338654
    14  H    4.110368   4.189816   3.651742   3.467712   5.136928
    15  H    2.845710   2.853652   2.752464   2.854432   3.662374
    16  H    3.366316   4.005950   4.059575   2.715324   4.924154
    17  H    3.897924   3.340555   2.140828   3.445193   4.231137
    18  H    2.127431   3.382925   3.919735   1.090125   4.264676
    19  H    2.107338   2.929209   3.244215   1.091294   3.811331
    20  H    3.363712   2.997887   2.116653   2.787102   3.891588
    21  O    1.425210   2.411330   3.628653   2.395456   2.649030
    22  S    2.663204   2.930173   4.190333   3.869479   2.550347
    23  O    3.276941   3.108870   4.040269   4.274577   2.702191
    24  O    3.132468   3.113711   4.424509   4.588635   2.390106
    25  C    3.938361   4.590440   5.848845   4.838596   4.322149
    26  H    4.048123   4.885561   6.214901   4.942663   4.667521
    27  H    4.073418   4.844808   5.981107   4.659951   4.768535
    28  H    4.837536   5.284163   6.520965   5.826125   4.836992
    29  C    3.128651   2.939119   3.872405   4.397498   2.677409
    30  N    2.455775   2.906982   4.040084   3.628888   2.919327
    31  H    3.180490   2.596983   3.192277   4.327652   2.433506
    32  C    3.473483   4.060219   5.302688   4.629846   3.877742
    33  O    1.567477   2.497086   3.503129   2.383721   2.976631
    34  C    4.426575   4.643498   5.825540   5.728812   4.194781
    35  H    3.755949   4.634207   5.906385   4.705068   4.568634
    36  H    5.424796   5.643298   6.842787   6.731740   5.109051
    37  N    4.249919   4.073102   5.066880   5.599215   3.554989
    38  C    5.443012   4.973677   5.779417   6.816779   4.296235
    39  H    6.293625   5.947778   6.755021   7.617020   5.331678
    40  H    5.504412   4.819600   5.382961   6.800371   4.202573
    41  H    5.737938   5.190580   6.050929   7.198226   4.339579
                    6          7          8          9         10
     6  O    0.000000
     7  C    2.400962   0.000000
     8  C    3.686342   1.527655   0.000000
     9  C    4.897189   2.506300   1.532778   0.000000
    10  H    5.026395   2.735168   2.163068   1.087284   0.000000
    11  H    5.794127   3.456255   2.166213   1.087283   1.765764
    12  H    5.109175   2.762760   2.171428   1.087591   1.762460
    13  C    4.089371   2.501726   1.529711   2.490589   2.737602
    14  H    4.372786   2.806180   2.156346   2.653942   2.448211
    15  H    3.572902   2.668949   2.160607   3.438192   3.688205
    16  H    5.077243   3.448982   2.166373   2.802321   3.193784
    17  H    2.539756   1.092616   2.170929   2.826302   2.615894
    18  H    5.173197   3.444310   2.174871   2.762114   3.767753
    19  H    4.432076   2.735615   2.158963   2.675905   3.671420
    20  H    2.824415   1.095312   2.162460   2.664005   2.946468
    21  O    4.672423   4.130764   3.766146   4.860928   5.800528
    22  S    4.922192   5.083525   5.090161   6.264531   7.141921
    23  O    4.567883   4.952667   5.314746   6.396377   7.199865
    24  O    4.969937   5.571596   5.624030   6.976770   7.767566
    25  C    6.668796   6.527921   6.273709   7.235457   8.224892
    26  H    7.104886   6.852927   6.399003   7.371218   8.375768
    27  H    6.876526   6.442621   6.135649   6.902230   7.925797
    28  H    7.203479   7.329834   7.215404   8.213306   9.180049
    29  C    4.358698   4.913851   4.782981   6.271464   6.801098
    30  N    4.847675   4.804541   4.324268   5.705613   6.391238
    31  H    3.504100   4.292346   4.399338   5.912223   6.305932
    32  C    6.081945   6.089776   5.533407   6.828951   7.589360
    33  O    4.553516   3.895430   3.153323   4.445708   5.200955
    34  C    6.369757   6.834957   6.494255   7.886635   8.566128
    35  H    6.809018   6.520832   5.780015   6.923851   7.769770
    36  H    7.334209   7.888992   7.551148   8.928175   9.624812
    37  N    5.413493   6.206659   6.099407   7.579435   8.131225
    38  C    5.828364   7.055473   7.167791   8.680338   9.133420
    39  H    6.830834   7.960960   7.960837   9.444526   9.885573
    40  H    5.257955   6.665890   6.927184   8.438911   8.775824
    41  H    6.022542   7.432859   7.663986   9.189408   9.689407
                   11         12         13         14         15
    11  H    0.000000
    12  H    1.766519   0.000000
    13  C    2.714847   3.448686   0.000000
    14  H    2.941525   3.677613   1.087653   0.000000
    15  H    3.747083   4.290794   1.085114   1.761057   0.000000
    16  H    2.586339   3.782216   1.086323   1.769451   1.765513
    17  H    3.800540   3.220876   2.683189   2.552768   2.866100
    18  H    2.575210   3.088611   2.756129   3.716664   3.198825
    19  H    3.043066   2.434254   3.471603   4.285339   3.844296
    20  H    3.687931   2.469088   3.449914   3.734502   3.723480
    21  O    5.075218   4.882800   4.438007   5.477657   4.230520
    22  S    6.597337   6.201524   5.743791   6.742198   5.338875
    23  O    6.913832   6.153058   6.212610   7.105957   5.860423
    24  O    7.301400   7.098311   5.941454   6.916949   5.302874
    25  C    7.371558   7.078128   6.957487   8.009945   6.687586
    26  H    7.372131   7.336985   6.890092   7.971056   6.608879
    27  H    7.014420   6.611613   6.997429   8.027046   6.887599
    28  H    8.403660   8.019230   7.903693   8.943126   7.562165
    29  C    6.519487   6.838156   4.295221   5.101153   3.344497
    30  N    5.790808   6.236235   3.957990   4.926276   3.248582
    31  H    6.297251   6.505276   3.880195   4.543355   2.839411
    32  C    6.795494   7.304735   5.199415   6.184237   4.558327
    33  O    4.486064   4.973063   2.953096   4.010246   2.531721
    34  C    7.944624   8.384820   6.065527   6.966333   5.254927
    35  H    6.754728   7.346258   5.540739   6.566408   5.078337
    36  H    8.954352   9.408223   7.120360   8.015466   6.312609
    37  N    7.785541   8.121571   5.597989   6.388535   4.644547
    38  C    8.976735   9.227548   6.623003   7.288168   5.589465
    39  H    9.658451  10.053176   7.277054   7.912254   6.254768
    40  H    8.820224   9.020549   6.325151   6.862795   5.250205
    41  H    9.543056   9.632499   7.305082   8.014053   6.292123
                   16         17         18         19         20
    16  H    0.000000
    17  H    3.727513   0.000000
    18  H    2.488739   4.300824   0.000000
    19  H    3.710783   3.762474   1.772568   0.000000
    20  H    4.294506   1.759877   3.789098   2.591479   0.000000
    21  O    4.537639   5.173928   2.697265   2.499566   4.304491
    22  S    5.964057   6.088208   4.293904   3.824701   5.163668
    23  O    6.624640   5.928620   4.941693   3.954329   4.784574
    24  O    6.162404   6.454159   4.973094   4.826253   5.875662
    25  C    6.956974   7.585545   4.942719   4.654909   6.513405
    26  H    6.740329   7.889219   4.839961   4.944326   6.974712
    27  H    6.982858   7.529659   4.736128   4.268617   6.284067
    28  H    7.956576   8.369948   5.998242   5.603639   7.274182
    29  C    4.491348   5.438664   4.666672   5.211118   5.725443
    30  N    3.907835   5.495192   3.667302   4.456015   5.541576
    31  H    4.307842   4.669764   4.778319   5.139793   5.163888
    32  C    4.980602   6.831992   4.479758   5.349693   6.749546
    33  O    2.845850   4.659997   2.355336   3.298193   4.596053
    34  C    5.967937   7.488895   5.715028   6.441286   7.534138
    35  H    5.157303   7.332459   4.347277   5.349448   7.101963
    36  H    6.980023   8.548879   6.672455   7.401755   8.563263
    37  N    5.711045   6.731474   5.792699   6.354757   6.974000
    38  C    6.854234   7.453740   7.115172   7.541222   7.826154
    39  H    7.399970   8.324222   7.805699   8.398617   8.779785
    40  H    6.688060   6.925293   7.203252   7.545603   7.478034
    41  H    7.589638   7.898002   7.565647   7.799849   8.091739
                   21         22         23         24         25
    21  O    0.000000
    22  S    1.602272   0.000000
    23  O    2.507491   1.434080   0.000000
    24  O    2.499142   1.439549   2.447283   0.000000
    25  C    2.540889   1.790443   2.649928   2.649846   0.000000
    26  H    2.723870   2.359956   3.532995   2.830380   1.080961
    27  H    2.669276   2.343989   2.849264   3.520793   1.081121
    28  H    3.493179   2.354960   2.894192   2.936958   1.082615
    29  C    3.715357   3.940786   4.846877   3.040944   5.240780
    30  N    2.859311   3.442428   4.577767   2.866110   4.469032
    31  H    4.063046   4.343271   4.985255   3.587992   5.852425
    32  C    3.359540   3.643069   4.978738   2.889765   4.194857
    33  O    2.311789   3.463467   4.466515   3.432755   4.467658
    34  C    4.355283   4.233563   5.454772   3.077383   4.885176
    35  H    3.386000   3.817326   5.232170   3.363419   3.932345
    36  H    5.197970   4.890894   6.112888   3.674846   5.292570
    37  N    4.517088   4.384256   5.368582   3.158825   5.465456
    38  C    5.745213   5.377148   6.159281   4.033308   6.523418
    39  H    6.574543   6.262978   7.142366   4.901345   7.251125
    40  H    6.032853   5.763214   6.378817   4.525150   7.110427
    41  H    5.842282   5.175503   5.841953   3.768308   6.268084
                   26         27         28         29         30
    26  H    0.000000
    27  H    1.789305   0.000000
    28  H    1.786847   1.785298   0.000000
    29  C    5.015047   5.936217   5.816496   0.000000
    30  N    4.099718   5.071155   5.209845   1.334711   0.000000
    31  H    5.774053   6.459475   6.432332   1.071795   2.137860
    32  C    3.568912   4.944541   4.827907   2.196756   1.363540
    33  O    4.192316   4.795063   5.381413   2.373933   1.332110
    34  C    4.339218   5.787570   5.278671   2.186051   2.182852
    35  H    3.108581   4.589185   4.637538   3.207610   2.129833
    36  H    4.674845   6.264791   5.525841   3.202268   3.234952
    37  N    5.141349   6.327193   5.855673   1.334797   2.163906
    38  C    6.291526   7.441801   6.743515   2.476259   3.561550
    39  H    6.894925   8.198859   7.458048   3.229017   4.175472
    40  H    6.975685   7.958019   7.379899   2.602962   3.886178
    41  H    6.138753   7.237284   6.319879   3.108747   4.096020
                   31         32         33         34         35
    31  H    0.000000
    32  C    3.228528   0.000000
    33  O    2.735751   2.392678   0.000000
    34  C    3.225794   1.359666   3.472966   0.000000
    35  H    4.193089   1.069862   2.698858   2.220456   0.000000
    36  H    4.201491   2.206877   4.494156   1.071014   2.761492
    37  N    2.153972   2.198077   3.453300   1.361223   3.251850
    38  C    2.844020   3.591460   4.797540   2.487812   4.613985
    39  H    3.678996   3.983266   5.452802   2.753458   4.923804
    40  H    2.537346   4.253204   4.965771   3.353611   5.316181
    41  H    3.474697   4.006249   5.317500   2.863626   4.969293
                   36         37         38         39         40
    36  H    0.000000
    37  N    2.133563   0.000000
    38  C    2.776048   1.439711   0.000000
    39  H    2.732170   2.079182   1.090383   0.000000
    40  H    3.802567   2.074787   1.087989   1.780815   0.000000
    41  H    2.958647   2.078950   1.091461   1.778874   1.773673
                   41
    41  H    0.000000
 Stoichiometry    C13H20N2O5S
 Framework group  C1[X(C13H20N2O5S)]
 Deg. of freedom   117
 Full point group                 C1      NOp   1
 Largest Abelian subgroup         C1      NOp   1
 Largest concise Abelian subgroup C1      NOp   1
                         Standard orientation:                         
 ---------------------------------------------------------------------
 Center     Atomic      Atomic             Coordinates (Angstroms)
 Number     Number       Type             X           Y           Z
 ---------------------------------------------------------------------
      1          6           0        0.751993    0.413061   -0.372001
      2          6           0        0.738868   -0.029836    0.992525
      3          6           0        1.859005   -0.452478    1.692456
      4          6           0        2.117878    0.632287   -1.000052
      5          1           0       -0.197077    0.035301    1.527439
      6          8           0        1.820177   -0.883065    2.872298
      7          6           0        3.222736   -0.330571    1.003556
      8          6           0        3.166491   -0.379639   -0.522274
      9          6           0        4.524584    0.021275   -1.109010
     10          1           0        5.301241   -0.647409   -0.745893
     11          1           0        4.499327   -0.034105   -2.194588
     12          1           0        4.785742    1.036396   -0.818875
     13          6           0        2.828805   -1.798514   -0.983551
     14          1           0        3.660622   -2.464473   -0.765444
     15          1           0        1.952220   -2.165660   -0.459840
     16          1           0        2.631904   -1.817770   -2.051707
     17          1           0        3.871477   -1.118573    1.393425
     18          1           0        2.003388    0.590090   -2.083326
     19          1           0        2.429573    1.639988   -0.720213
     20          1           0        3.644512    0.625517    1.331746
     21          8           0       -0.067105    1.547260   -0.643839
     22         16           0       -1.219708    2.052129    0.348073
     23          8           0       -0.665217    2.696520    1.503013
     24          8           0       -2.171801    0.999225    0.587267
     25          6           0       -1.929749    3.271975   -0.753517
     26          1           0       -2.300792    2.756182   -1.628024
     27          1           0       -1.138859    3.965273   -1.003824
     28          1           0       -2.730147    3.767615   -0.218953
     29          6           0       -1.341763   -1.874769    0.040883
     30          7           0       -1.067894   -1.105374   -1.014806
     31          1           0       -0.617502   -2.230725    0.746210
     32          6           0       -2.230612   -0.811861   -1.663789
     33          8           0        0.135658   -0.644218   -1.351427
     34          6           0       -3.225688   -1.432907   -0.976171
     35          1           0       -2.243715   -0.212094   -2.549630
     36          1           0       -4.281000   -1.452369   -1.157858
     37          7           0       -2.660120   -2.080031    0.079429
     38          6           0       -3.379759   -2.816537    1.085633
     39          1           0       -4.058885   -3.524226    0.609293
     40          1           0       -2.675258   -3.353530    1.717328
     41          1           0       -3.955785   -2.126337    1.704587
 ---------------------------------------------------------------------
 Rotational constants (GHZ):           0.3947290           0.2491379           0.2071223
 Standard basis: STO-3G (5D, 7F)
 There are   129 symmetry adapted cartesian basis functions of A   symmetry.
 There are   129 symmetry adapted basis functions of A   symmetry.
   129 basis functions,   387 primitive gaussians,   129 cartesian basis functions
    84 alpha electrons       84 beta electrons
       nuclear repulsion energy      2138.8957687931 Hartrees.



 Warning!  S  atom   22 may be hypervalent but has no d functions.



 NAtoms=   41 NActive=   41 NUniq=   41 SFac= 1.00D+00 NAtFMM=   60 NAOKFM=F Big=F
 Integral buffers will be    131072 words long.
 Raffenetti 1 integral format.
 Two-electron integral symmetry is turned on.
 External calculation of energy, first and second derivatives.
 Running external command "xtb-gaussian -P 4 R"
         input file       "/scratch/Gau-374491.EIn"
         output file      "/scratch/Gau-374491.EOu"
         message file     "/scratch/Gau-374491.EMs"
         fchk file        "/scratch/Gau-374491.EFC"
         mat. el file     "/scratch/Gau-374491.EUF"

 ExternalExternalExternalExternalExternalExternalExternalExternalExternalExternal
 Output from external command:
 "xtb-gaussian -P 4 R /scratch/Gau-374491.EIn /scratch/Gau-374491.EOu /scratch/Gau-374491.EMs /scratch/Gau-374491.EFC /scratch/Gau-374491.EUF"
 normal termination of xtb
  
 ------- xtb command was ---------
 ?> xtb ./Gau-374491.EIn -P 4 --hess --charge 0  >/dev/null 2>Gau-374491.EMs
 ---------------------------------
              Control returned to Gaussian.
 ~~~~~~~~~~~~~~~~~~~~~~~~~~~~~~~~~~~~~~~~~~~~~~~~~~~~~~~~~~~~~~~~~~~~~~~~~
 ExternalExternalExternalExternalExternalExternalExternalExternalExternalExternal

 Recovered energy= -67.4148672972     dipole=     -3.626526705790     -0.801103827758     -3.711762373300
 Energy=    -67.4148673     NIter=   0.
 Dipole moment=      -3.626527      -0.801104      -3.711762
 Full mass-weighted force constant matrix:
 Low frequencies ---  -21.8811   -0.0256   -0.0084    0.0014    0.0083    0.0129
 Low frequencies ---    0.0193   35.1543   45.2757
 ******    1 imaginary frequencies (negative Signs) ****** 
 Diagonal vibrational polarizability:
        0.0000000       0.0000000       0.0000000
 Harmonic frequencies (cm**-1), IR intensities (KM/Mole), Raman scattering
 activities (A**4/AMU), depolarization ratios for plane and unpolarized
 incident light, reduced masses (AMU), force constants (mDyne/A),
 and normal coordinates:
                      1                      2                      3
                      A                      A                      A
 Frequencies --    -21.8811                35.1543                45.2757
 Red. masses --      5.0275                 4.7648                 3.9145
 Frc consts  --      0.0014                 0.0035                 0.0047
 IR Inten    --      0.0000                 0.0000                 0.0000
  Atom  AN      X      Y      Z        X      Y      Z        X      Y      Z
     1   6    -0.06  -0.04  -0.09    -0.05  -0.13  -0.11    -0.02  -0.05  -0.04
     2   6    -0.10  -0.07  -0.06    -0.07  -0.14  -0.08    -0.01  -0.05  -0.03
     3   6    -0.12  -0.04  -0.02    -0.07   0.00  -0.02     0.02   0.11   0.02
     4   6    -0.01  -0.01   0.01    -0.03  -0.02  -0.02    -0.03  -0.06  -0.06
     5   1    -0.11  -0.03  -0.09    -0.09  -0.16  -0.11    -0.02  -0.08  -0.04
     6   8    -0.16  -0.04  -0.02    -0.08   0.03  -0.01     0.04   0.18   0.04
     7   6    -0.10  -0.06   0.02    -0.05   0.08   0.03     0.01   0.16   0.01
     8   6    -0.05  -0.04   0.02     0.02   0.05   0.03    -0.01  -0.00   0.01
     9   6    -0.02  -0.05   0.07     0.01   0.13   0.08    -0.02  -0.05  -0.06
    10   1    -0.04  -0.07   0.10     0.04   0.19   0.12    -0.01  -0.01  -0.00
    11   1     0.02  -0.04   0.07     0.06   0.12   0.08    -0.05  -0.17  -0.05
    12   1    -0.01  -0.06   0.09    -0.06   0.15   0.07    -0.02  -0.02  -0.17
    13   6    -0.06  -0.02  -0.02     0.12   0.03   0.03    -0.01  -0.05   0.17
    14   1    -0.07  -0.04  -0.02     0.15   0.08   0.07    -0.01  -0.03   0.23
    15   1    -0.07  -0.03  -0.04     0.12  -0.02  -0.01    -0.01   0.01   0.22
    16   1    -0.04   0.00  -0.02     0.17   0.01   0.02    -0.03  -0.16   0.17
    17   1    -0.13  -0.08   0.03    -0.02   0.12   0.06     0.07   0.24   0.08
    18   1     0.05   0.04  -0.00     0.04  -0.01  -0.03    -0.03  -0.14  -0.06
    19   1    -0.02  -0.03   0.07    -0.12   0.00   0.01    -0.05  -0.03  -0.13
    20   1    -0.08  -0.08   0.05    -0.11   0.10   0.03    -0.05   0.22  -0.09
    21   8     0.03   0.07  -0.01    -0.08  -0.11  -0.07    -0.00  -0.01  -0.02
    22  16     0.02   0.06  -0.02     0.01  -0.07   0.01     0.05   0.00   0.03
    23   8     0.00   0.03   0.00     0.11  -0.10  -0.02     0.09  -0.05   0.03
    24   8    -0.00   0.07  -0.07    -0.03  -0.02   0.06     0.01   0.03   0.01
    25   6     0.05   0.10  -0.00    -0.00  -0.02   0.07     0.07   0.07   0.08
    26   1     0.05   0.13  -0.02    -0.06   0.01   0.07     0.04   0.12   0.07
    27   1     0.07   0.09   0.02     0.01  -0.04   0.04     0.09   0.06   0.10
    28   1     0.06   0.11  -0.00     0.04  -0.01   0.12     0.09   0.07   0.11
    29   6     0.13  -0.03  -0.04     0.03  -0.04  -0.06    -0.04  -0.07  -0.06
    30   7     0.01   0.03  -0.03     0.03  -0.05  -0.07    -0.05   0.00  -0.01
    31   1     0.20  -0.03  -0.11     0.05  -0.13  -0.12    -0.03  -0.11  -0.09
    32   6    -0.05   0.02   0.08     0.01   0.08   0.02    -0.05   0.05   0.02
    33   8    -0.01   0.13  -0.07     0.05  -0.06  -0.07    -0.04   0.00  -0.01
    34   6     0.03  -0.04   0.13    -0.00   0.17   0.08    -0.05   0.01  -0.01
    35   1    -0.14   0.06   0.11     0.00   0.10   0.03    -0.06   0.12   0.07
    36   1     0.02  -0.07   0.22    -0.02   0.28   0.16    -0.05   0.02   0.00
    37   7     0.14  -0.07   0.06     0.01   0.09   0.03    -0.04  -0.07  -0.06
    38   6     0.24  -0.14   0.08     0.01   0.17   0.09    -0.03  -0.17  -0.13
    39   1     0.33  -0.24   0.10    -0.14   0.28   0.14     0.10  -0.26  -0.19
    40   1     0.32  -0.04   0.08    -0.00   0.07   0.01    -0.01  -0.10  -0.08
    41   1     0.17  -0.21   0.08     0.16   0.25   0.15    -0.17  -0.26  -0.16
                      4                      5                      6
                      A                      A                      A
 Frequencies --     61.8306                69.7375                78.1639
 Red. masses --      3.8248                 2.7696                 1.4342
 Frc consts  --      0.0086                 0.0079                 0.0052
 IR Inten    --      0.0000                 0.0000                 0.0000
  Atom  AN      X      Y      Z        X      Y      Z        X      Y      Z
     1   6     0.01   0.02   0.04    -0.01   0.02   0.00    -0.00  -0.01  -0.01
     2   6     0.00   0.04   0.02    -0.01   0.03   0.00     0.00  -0.00  -0.01
     3   6    -0.01  -0.06  -0.01    -0.01   0.02  -0.01     0.00   0.01  -0.00
     4   6    -0.02   0.01   0.00    -0.02   0.01  -0.01     0.00   0.00  -0.01
     5   1    -0.01   0.00   0.02    -0.01   0.04   0.00     0.00   0.01  -0.00
     6   8    -0.02  -0.14  -0.04    -0.01   0.01  -0.01     0.00   0.02   0.00
     7   6    -0.01  -0.01   0.00    -0.01   0.01  -0.01     0.00  -0.00  -0.01
     8   6     0.03   0.05   0.00    -0.01   0.02  -0.01    -0.00  -0.00  -0.01
     9   6     0.02   0.16   0.06    -0.01   0.03  -0.00    -0.00  -0.00  -0.01
    10   1     0.05   0.18   0.03    -0.01   0.04  -0.01    -0.00  -0.00  -0.01
    11   1     0.05   0.23   0.05    -0.01   0.04  -0.00    -0.00  -0.01  -0.01
    12   1    -0.04   0.16   0.13    -0.02   0.03   0.01    -0.00  -0.00  -0.01
    13   6     0.12   0.06  -0.07     0.01   0.02  -0.01    -0.00  -0.00  -0.01
    14   1     0.13   0.08  -0.02     0.01   0.02  -0.01     0.00   0.00  -0.02
    15   1     0.09   0.01  -0.17     0.01   0.01  -0.02     0.00  -0.01  -0.00
    16   1     0.22   0.08  -0.09     0.02   0.02  -0.02    -0.01   0.00  -0.01
    17   1     0.01  -0.01  -0.02    -0.01   0.01  -0.01    -0.01  -0.01  -0.01
    18   1    -0.04  -0.03   0.01    -0.02  -0.00  -0.01     0.01   0.01  -0.01
    19   1    -0.03   0.03  -0.04    -0.02   0.01  -0.03    -0.00  -0.00   0.01
    20   1    -0.04  -0.01   0.05    -0.01   0.01  -0.01     0.01  -0.01  -0.01
    21   8    -0.03  -0.05  -0.05    -0.02  -0.00  -0.02    -0.00  -0.00   0.00
    22  16     0.03   0.05  -0.03     0.01   0.02   0.00    -0.01  -0.02  -0.00
    23   8     0.11   0.06  -0.07     0.03  -0.10   0.06    -0.03  -0.08   0.04
    24   8    -0.03   0.12   0.04    -0.06   0.06  -0.09    -0.03  -0.02  -0.06
    25   6     0.08   0.06  -0.05     0.13   0.16   0.09     0.03   0.04   0.04
    26   1     0.09   0.06  -0.06     0.14   0.27   0.01     0.05   0.09   0.01
    27   1     0.11   0.04  -0.05     0.19   0.14   0.20     0.05   0.04   0.09
    28   1     0.09   0.09  -0.08     0.13   0.16   0.10     0.03   0.03   0.04
    29   6    -0.06  -0.07   0.03    -0.01   0.01   0.05     0.00   0.04   0.03
    30   7    -0.03  -0.05   0.05    -0.00  -0.04   0.01     0.01  -0.00  -0.00
    31   1    -0.06  -0.12   0.02    -0.03   0.08   0.10     0.00   0.07   0.05
    32   6    -0.03  -0.01   0.06     0.01  -0.14  -0.06     0.02  -0.03  -0.02
    33   8    -0.03  -0.11   0.04    -0.01  -0.03   0.01     0.01   0.00  -0.00
    34   6    -0.05  -0.01   0.05     0.01  -0.14  -0.06     0.01  -0.00  -0.01
    35   1    -0.02   0.02   0.08     0.02  -0.19  -0.09     0.03  -0.06  -0.05
    36   1    -0.05   0.02   0.05     0.02  -0.19  -0.11     0.01  -0.01  -0.01
    37   7    -0.06  -0.05   0.03    -0.01  -0.05   0.00     0.00   0.05   0.03
    38   6    -0.07  -0.13  -0.04    -0.02   0.04   0.06    -0.01   0.05   0.02
    39   1     0.19  -0.35  -0.10    -0.33   0.31   0.11     0.39  -0.34   0.03
    40   1    -0.06   0.10   0.14    -0.05  -0.25  -0.15     0.02   0.48   0.36
    41   1    -0.36  -0.22  -0.22     0.32   0.14   0.27    -0.44   0.01  -0.33
                      7                      8                      9
                      A                      A                      A
 Frequencies --     92.3444               107.0693               121.2082
 Red. masses --      5.2564                 3.9508                 4.1654
 Frc consts  --      0.0264                 0.0267                 0.0361
 IR Inten    --      0.0000                 0.0000                 0.0000
  Atom  AN      X      Y      Z        X      Y      Z        X      Y      Z
     1   6    -0.03   0.04  -0.01     0.01   0.02  -0.03    -0.04  -0.11  -0.05
     2   6    -0.05   0.08  -0.01    -0.00   0.00  -0.05    -0.03  -0.11  -0.01
     3   6    -0.07   0.03  -0.00    -0.02  -0.03  -0.03    -0.02   0.05   0.03
     4   6    -0.01   0.06   0.03     0.01  -0.07  -0.08    -0.01  -0.04   0.01
     5   1    -0.04   0.08  -0.01    -0.00  -0.00  -0.05    -0.01   0.00   0.01
     6   8    -0.10   0.04  -0.00    -0.05  -0.09  -0.06     0.01   0.26   0.12
     7   6    -0.06  -0.03   0.01    -0.01   0.09   0.02    -0.02  -0.16  -0.02
     8   6    -0.06  -0.01   0.00     0.04   0.01   0.03     0.01  -0.04  -0.03
     9   6    -0.05  -0.07   0.00     0.05   0.05   0.07     0.01   0.09   0.07
    10   1    -0.07  -0.09   0.01     0.05   0.07   0.10     0.03   0.09   0.03
    11   1    -0.05  -0.08   0.00     0.09   0.04   0.07     0.07   0.20   0.06
    12   1    -0.01  -0.07  -0.01     0.01   0.06   0.07    -0.05   0.07   0.19
    13   6    -0.12   0.01  -0.01     0.12  -0.02   0.09     0.09   0.00  -0.21
    14   1    -0.10  -0.00  -0.12     0.05  -0.02   0.34     0.07  -0.00  -0.20
    15   1    -0.07  -0.01   0.08    -0.01   0.05  -0.07     0.03  -0.07  -0.35
    16   1    -0.24   0.05   0.01     0.36  -0.12   0.04     0.20   0.12  -0.24
    17   1    -0.10  -0.07  -0.01     0.07   0.17   0.08    -0.16  -0.31  -0.08
    18   1     0.01   0.11   0.02    -0.01  -0.21  -0.07     0.02   0.03   0.01
    19   1     0.01   0.03   0.09     0.00  -0.03  -0.22    -0.06  -0.05   0.09
    20   1    -0.01  -0.06   0.02    -0.13   0.15  -0.01     0.16  -0.27   0.05
    21   8    -0.10  -0.04  -0.08     0.09   0.09   0.01     0.04   0.01   0.04
    22  16     0.04   0.03   0.05     0.06  -0.00   0.02     0.04   0.00   0.02
    23   8     0.22   0.09  -0.06     0.02   0.04   0.02     0.00   0.03   0.02
    24   8     0.06   0.05   0.22     0.14  -0.07   0.02     0.05  -0.02   0.02
    25   6    -0.12  -0.01   0.10    -0.07  -0.05   0.04     0.03  -0.04  -0.02
    26   1    -0.26  -0.06   0.19    -0.05  -0.08   0.05    -0.09  -0.09   0.06
    27   1    -0.17  -0.02  -0.05    -0.15   0.02   0.03     0.06  -0.13  -0.15
    28   1    -0.05   0.00   0.21    -0.11  -0.13   0.07     0.12   0.08   0.01
    29   6     0.04   0.01   0.00    -0.06   0.08   0.01    -0.04   0.02   0.02
    30   7     0.07  -0.06  -0.04    -0.09   0.04  -0.03    -0.04   0.02   0.01
    31   1     0.02   0.08   0.06    -0.04   0.18   0.05    -0.04   0.10   0.06
    32   6     0.09  -0.14  -0.12    -0.10  -0.09  -0.07    -0.04  -0.03  -0.02
    33   8     0.06  -0.05  -0.02    -0.11   0.07  -0.06    -0.03   0.06   0.01
    34   6     0.07  -0.11  -0.11    -0.07  -0.12  -0.05    -0.03  -0.06  -0.04
    35   1     0.12  -0.20  -0.16    -0.13  -0.16  -0.12    -0.04  -0.05  -0.04
    36   1     0.08  -0.16  -0.16    -0.07  -0.21  -0.07    -0.02  -0.10  -0.07
    37   7     0.04  -0.02  -0.04    -0.04  -0.00   0.01    -0.03  -0.02  -0.01
    38   6     0.01   0.04  -0.02    -0.00   0.05   0.07    -0.04  -0.02  -0.02
    39   1     0.16  -0.12   0.00     0.04  -0.03   0.14    -0.04  -0.02  -0.02
    40   1     0.01   0.22   0.14     0.03   0.14   0.12    -0.04  -0.03  -0.02
    41   1    -0.15   0.06  -0.19    -0.04   0.07   0.01    -0.04  -0.03  -0.01
                     10                     11                     12
                      A                      A                      A
 Frequencies --    132.1022               136.0157               154.9648
 Red. masses --      2.3111                 1.3863                 4.6997
 Frc consts  --      0.0238                 0.0151                 0.0665
 IR Inten    --      0.0000                 0.0000                 0.0000
  Atom  AN      X      Y      Z        X      Y      Z        X      Y      Z
     1   6     0.03   0.07  -0.01    -0.01  -0.03   0.01    -0.10  -0.18  -0.14
     2   6     0.01   0.12  -0.01    -0.01  -0.06   0.00    -0.06  -0.13  -0.02
     3   6    -0.02   0.04  -0.00     0.01  -0.01   0.01    -0.05  -0.02  -0.03
     4   6     0.03   0.02  -0.01    -0.02  -0.01   0.01    -0.05  -0.04  -0.03
     5   1     0.00   0.11  -0.01    -0.00  -0.05   0.01    -0.06  -0.11  -0.03
     6   8    -0.06   0.05  -0.00     0.03   0.01   0.02    -0.02  -0.09  -0.04
     7   6    -0.01  -0.05   0.00     0.00   0.00  -0.00    -0.04   0.06  -0.03
     8   6     0.00  -0.01  -0.00    -0.00  -0.00  -0.00    -0.03   0.01  -0.02
     9   6     0.03  -0.03   0.05    -0.02   0.01  -0.02    -0.06   0.06  -0.07
    10   1     0.00  -0.06   0.06    -0.00   0.02  -0.03    -0.00   0.15  -0.02
    11   1     0.07   0.01   0.05    -0.03   0.01  -0.02    -0.07  -0.04  -0.07
    12   1     0.05  -0.04   0.09    -0.02   0.02  -0.03    -0.14   0.10  -0.17
    13   6    -0.01   0.01  -0.05     0.00  -0.00   0.00     0.02  -0.02   0.02
    14   1    -0.03  -0.02  -0.04     0.01   0.00  -0.01     0.12   0.06  -0.13
    15   1    -0.04   0.02  -0.10     0.01  -0.01   0.02     0.15  -0.12   0.18
    16   1     0.04   0.04  -0.06    -0.02  -0.01   0.01    -0.16  -0.04   0.05
    17   1    -0.08  -0.11  -0.01     0.02   0.01  -0.00     0.00   0.10   0.00
    18   1     0.03   0.01  -0.01    -0.02   0.00   0.01     0.01   0.03  -0.04
    19   1     0.06   0.01  -0.02    -0.03  -0.01   0.02    -0.14  -0.04   0.07
    20   1     0.06  -0.09   0.03    -0.00   0.01  -0.01    -0.10   0.09  -0.05
    21   8     0.01   0.02  -0.09    -0.01  -0.02   0.04     0.03   0.04  -0.01
    22  16     0.02  -0.04  -0.03    -0.00   0.02   0.02     0.03   0.02  -0.02
    23   8     0.05  -0.08  -0.02    -0.01   0.05   0.01    -0.01   0.05  -0.02
    24   8     0.05  -0.06  -0.05    -0.02   0.04   0.05     0.07  -0.02  -0.04
    25   6    -0.08   0.01   0.08     0.04  -0.01  -0.04    -0.05   0.01   0.02
    26   1     0.29   0.10  -0.13     0.56   0.02  -0.28     0.05   0.03  -0.04
    27   1    -0.25   0.32   0.44    -0.08   0.28   0.39    -0.12   0.12   0.10
    28   1    -0.37  -0.38   0.02    -0.33  -0.36  -0.28    -0.13  -0.13   0.02
    29   6    -0.02   0.01   0.03     0.01  -0.01  -0.03     0.01   0.06   0.17
    30   7    -0.00   0.01   0.04    -0.00  -0.01  -0.03     0.06   0.03   0.15
    31   1    -0.02  -0.02   0.02     0.01  -0.00  -0.03    -0.04   0.13   0.26
    32   6    -0.00   0.04   0.05    -0.01  -0.02  -0.03     0.12  -0.00   0.04
    33   8    -0.00  -0.03   0.02    -0.00   0.00  -0.02     0.11   0.11   0.16
    34   6    -0.01   0.04   0.04    -0.00  -0.02  -0.02     0.08  -0.01  -0.04
    35   1     0.00   0.06   0.07    -0.01  -0.03  -0.04     0.20  -0.02   0.03
    36   1    -0.01   0.06   0.04    -0.00  -0.02  -0.01     0.10  -0.05  -0.14
    37   7    -0.02   0.01   0.03     0.01  -0.01  -0.02     0.00   0.03   0.04
    38   6    -0.02  -0.05  -0.02     0.01   0.03   0.02    -0.11  -0.03  -0.09
    39   1    -0.04   0.01  -0.08     0.02  -0.00   0.05    -0.13   0.07  -0.22
    40   1    -0.03  -0.13  -0.08     0.02   0.07   0.04    -0.19  -0.16  -0.11
    41   1     0.00  -0.09   0.04     0.00   0.05  -0.02    -0.10  -0.07  -0.04
                     13                     14                     15
                      A                      A                      A
 Frequencies --    185.0529               197.8751               206.7671
 Red. masses --      2.2406                 3.5785                 1.3270
 Frc consts  --      0.0452                 0.0826                 0.0334
 IR Inten    --      0.0000                 0.0000                 0.0000
  Atom  AN      X      Y      Z        X      Y      Z        X      Y      Z
     1   6    -0.00   0.00  -0.02     0.01  -0.00  -0.04    -0.01  -0.00   0.01
     2   6     0.01   0.03  -0.01     0.01   0.02  -0.03    -0.02  -0.01   0.01
     3   6    -0.00   0.00  -0.02    -0.01   0.01  -0.01    -0.01   0.00   0.01
     4   6    -0.00  -0.08  -0.07     0.01   0.02  -0.02    -0.02   0.03   0.02
     5   1     0.01   0.07  -0.00     0.01   0.06  -0.03    -0.02  -0.03   0.00
     6   8     0.00   0.02  -0.01    -0.03  -0.01  -0.02    -0.01  -0.00   0.01
     7   6    -0.01  -0.03  -0.03    -0.01   0.03  -0.00    -0.02   0.03   0.00
     8   6     0.01  -0.06  -0.03     0.00   0.02  -0.00    -0.03   0.02   0.00
     9   6     0.02  -0.05  -0.00     0.02  -0.03   0.02    -0.04   0.01  -0.04
    10   1     0.00  -0.10  -0.05    -0.02  -0.10  -0.01    -0.10  -0.25  -0.41
    11   1     0.03   0.03  -0.00     0.03   0.03   0.02    -0.22   0.43  -0.06
    12   1     0.05  -0.08   0.08     0.09  -0.06   0.08     0.16  -0.14   0.30
    13   6     0.11  -0.10  -0.00    -0.03   0.02   0.01    -0.06   0.03   0.01
    14   1    -0.01  -0.11   0.43    -0.11  -0.03   0.17    -0.20  -0.05   0.28
    15   1    -0.13   0.01  -0.34    -0.13   0.10  -0.12    -0.24   0.16  -0.21
    16   1     0.58  -0.21  -0.09     0.15  -0.01  -0.03     0.24  -0.01  -0.05
    17   1    -0.01  -0.01  -0.00     0.01   0.04   0.01     0.01   0.06   0.01
    18   1    -0.04  -0.18  -0.07     0.03   0.02  -0.03    -0.02   0.05   0.02
    19   1     0.04  -0.07  -0.18     0.00   0.02  -0.01    -0.02   0.02   0.04
    20   1    -0.01  -0.02  -0.06    -0.03   0.04  -0.01    -0.05   0.05  -0.01
    21   8    -0.04  -0.00   0.02    -0.07  -0.08  -0.02     0.02   0.01  -0.00
    22  16    -0.05   0.03   0.02    -0.02  -0.06   0.03     0.02  -0.01  -0.00
    23   8    -0.06   0.05   0.02     0.05  -0.08   0.01     0.02  -0.01   0.00
    24   8    -0.08   0.06   0.04    -0.09   0.02   0.09     0.04  -0.03  -0.02
    25   6    -0.07   0.05   0.05     0.12  -0.10  -0.09     0.04  -0.02  -0.03
    26   1    -0.10   0.08   0.05     0.21  -0.16  -0.09     0.05  -0.04  -0.02
    27   1    -0.09   0.08   0.06     0.19  -0.16  -0.07     0.05  -0.03  -0.02
    28   1    -0.07   0.02   0.10     0.08  -0.01  -0.24     0.03  -0.00  -0.06
    29   6     0.03  -0.01   0.01    -0.02   0.22   0.11     0.01  -0.04  -0.00
    30   7     0.04  -0.02   0.01    -0.02   0.11   0.03     0.01  -0.02   0.01
    31   1     0.02  -0.01   0.02    -0.02   0.33   0.16     0.00  -0.06  -0.01
    32   6     0.06   0.01  -0.00    -0.01  -0.01  -0.04     0.02   0.00   0.02
    33   8     0.04  -0.01   0.02    -0.00   0.01  -0.03     0.01   0.01   0.02
    34   6     0.04   0.02  -0.01    -0.00  -0.00  -0.02     0.01   0.00   0.00
    35   1     0.08   0.01   0.00    -0.01  -0.11  -0.11     0.02   0.02   0.03
    36   1     0.05   0.04  -0.01     0.01  -0.10  -0.07     0.01   0.02   0.01
    37   7     0.03   0.01  -0.00    -0.00   0.13   0.06     0.01  -0.02  -0.01
    38   6     0.01   0.00  -0.03     0.08  -0.11  -0.06    -0.02   0.02   0.00
    39   1     0.00   0.02  -0.06     0.09  -0.03  -0.19    -0.03   0.01   0.02
    40   1    -0.01  -0.02  -0.03     0.13  -0.22  -0.22    -0.05   0.03   0.04
    41   1     0.01  -0.01  -0.02     0.07  -0.29   0.13    -0.02   0.05  -0.03
                     16                     17                     18
                      A                      A                      A
 Frequencies --    216.0099               232.4365               243.5454
 Red. masses --      3.2802                 2.1938                 1.5730
 Frc consts  --      0.0902                 0.0698                 0.0550
 IR Inten    --      0.0000                 0.0000                 0.0000
  Atom  AN      X      Y      Z        X      Y      Z        X      Y      Z
     1   6     0.01   0.07  -0.04    -0.00  -0.05  -0.04     0.02  -0.01  -0.06
     2   6    -0.02   0.10  -0.04     0.01  -0.10  -0.03     0.02  -0.03  -0.06
     3   6    -0.06   0.04  -0.04     0.04  -0.01  -0.01     0.01   0.01  -0.04
     4   6    -0.00   0.02  -0.11     0.03   0.07   0.03     0.04  -0.00  -0.05
     5   1    -0.04   0.10  -0.08     0.00  -0.13  -0.04     0.01  -0.02  -0.07
     6   8    -0.11   0.03  -0.05     0.07  -0.02  -0.01    -0.01   0.02  -0.03
     7   6    -0.07   0.05  -0.04     0.02   0.05  -0.00     0.02   0.03  -0.01
     8   6    -0.03   0.02  -0.05     0.02   0.04   0.00     0.04   0.01  -0.00
     9   6     0.03  -0.04   0.04     0.10  -0.10   0.09     0.09  -0.04   0.08
    10   1     0.02   0.12   0.34     0.02  -0.04   0.36    -0.03  -0.32  -0.18
    11   1     0.20  -0.35   0.05     0.27  -0.35   0.09     0.05   0.35   0.06
    12   1    -0.08   0.06  -0.21     0.09  -0.04  -0.11     0.30  -0.20   0.44
    13   6    -0.03   0.02  -0.06    -0.08   0.09  -0.05    -0.00   0.01   0.00
    14   1    -0.04   0.01  -0.03    -0.25  -0.04   0.18     0.10   0.04  -0.30
    15   1    -0.05   0.03  -0.10    -0.28   0.24  -0.29     0.18  -0.07   0.25
    16   1     0.02   0.03  -0.07     0.21   0.12  -0.11    -0.34   0.07   0.06
    17   1    -0.05   0.07  -0.02     0.06   0.08   0.00     0.03   0.05   0.01
    18   1    -0.04  -0.07  -0.10     0.08   0.18   0.02     0.06  -0.03  -0.05
    19   1     0.02   0.03  -0.20    -0.03   0.05   0.15     0.02   0.01  -0.07
    20   1    -0.09   0.07  -0.06    -0.01   0.08  -0.02    -0.01   0.04  -0.01
    21   8     0.03   0.05   0.03    -0.02  -0.02  -0.00    -0.00  -0.00   0.01
    22  16     0.01  -0.01   0.08    -0.01   0.00  -0.02    -0.02   0.01   0.02
    23   8    -0.07   0.01   0.10     0.02  -0.00  -0.03    -0.04   0.03   0.02
    24   8     0.05  -0.05   0.06    -0.04   0.03  -0.00    -0.03   0.03   0.02
    25   6     0.15  -0.08  -0.08    -0.04   0.01   0.01    -0.01   0.01   0.01
    26   1     0.23  -0.16  -0.07    -0.06   0.03   0.01    -0.02   0.01   0.01
    27   1     0.23  -0.17  -0.07    -0.07   0.04   0.01    -0.02   0.01   0.01
    28   1     0.12   0.05  -0.25    -0.04  -0.02   0.05    -0.01   0.00   0.02
    29   6     0.02  -0.10   0.00    -0.01  -0.02   0.01    -0.00  -0.01   0.02
    30   7     0.04  -0.06   0.03    -0.01   0.02   0.04    -0.00  -0.01   0.01
    31   1     0.01  -0.16  -0.01    -0.01  -0.03   0.02    -0.01  -0.02   0.02
    32   6     0.05  -0.00   0.05    -0.01   0.01   0.03    -0.00  -0.02   0.01
    33   8     0.02  -0.02   0.01    -0.01   0.04   0.01    -0.01  -0.00  -0.02
    34   6     0.03   0.01   0.03    -0.01  -0.04  -0.01    -0.00  -0.01   0.01
    35   1     0.07   0.03   0.07    -0.02   0.03   0.04    -0.00  -0.02   0.01
    36   1     0.03   0.06   0.03    -0.00  -0.06  -0.02    -0.00  -0.01   0.01
    37   7     0.01  -0.05  -0.00    -0.01  -0.05  -0.01    -0.01  -0.01   0.02
    38   6    -0.09   0.03  -0.01    -0.05   0.02   0.02    -0.05  -0.00  -0.00
    39   1    -0.10   0.05  -0.02    -0.06   0.01   0.04    -0.05   0.02  -0.03
    40   1    -0.16   0.02   0.06    -0.08   0.04   0.07    -0.08  -0.03   0.01
    41   1    -0.08   0.10  -0.08    -0.05   0.08  -0.05    -0.05   0.01  -0.02
                     19                     20                     21
                      A                      A                      A
 Frequencies --    257.8309               287.1971               290.8783
 Red. masses --      4.5019                 3.0805                 3.8712
 Frc consts  --      0.1763                 0.1497                 0.1930
 IR Inten    --      0.0000                 0.0000                 0.0000
  Atom  AN      X      Y      Z        X      Y      Z        X      Y      Z
     1   6     0.00  -0.01   0.03    -0.03  -0.03   0.05     0.01   0.03   0.06
     2   6    -0.02  -0.08  -0.01    -0.03   0.03   0.09    -0.03  -0.02   0.03
     3   6     0.01  -0.03   0.00    -0.01   0.01   0.05    -0.01  -0.01   0.03
     4   6    -0.01   0.03   0.02    -0.09  -0.07  -0.10    -0.03  -0.03  -0.04
     5   1    -0.01  -0.07   0.00    -0.03   0.04   0.08    -0.04   0.01   0.02
     6   8     0.03   0.02   0.01     0.13  -0.04   0.03     0.05  -0.00   0.03
     7   6    -0.01   0.04  -0.00    -0.09   0.09  -0.05    -0.05   0.05  -0.02
     8   6    -0.02   0.03   0.00    -0.08  -0.02  -0.04    -0.04  -0.01  -0.02
     9   6     0.00  -0.01   0.02    -0.01  -0.01   0.16    -0.02   0.01   0.04
    10   1    -0.02   0.01   0.10    -0.08  -0.08   0.21    -0.03   0.01   0.07
    11   1     0.05  -0.09   0.03     0.16   0.11   0.15     0.04   0.03   0.04
    12   1    -0.00   0.01  -0.03    -0.01  -0.05   0.31    -0.04   0.00   0.08
    13   6    -0.08   0.06  -0.03    -0.06  -0.01  -0.09    -0.03  -0.01  -0.04
    14   1    -0.15  -0.01   0.06    -0.03  -0.01  -0.21    -0.01  -0.00  -0.11
    15   1    -0.16   0.13  -0.12    -0.01  -0.08  -0.04     0.00  -0.04  -0.02
    16   1     0.03   0.08  -0.05    -0.15   0.06  -0.07    -0.07   0.03  -0.04
    17   1     0.03   0.07   0.00     0.04   0.22   0.00     0.02   0.13   0.01
    18   1    -0.02   0.06   0.02    -0.21  -0.24  -0.08    -0.12  -0.13  -0.03
    19   1    -0.03   0.03   0.05    -0.07  -0.03  -0.29     0.00  -0.01  -0.16
    20   1    -0.06   0.06  -0.01    -0.20   0.18  -0.16    -0.13   0.10  -0.08
    21   8     0.05   0.00   0.04    -0.01  -0.03  -0.01     0.08   0.06   0.06
    22  16     0.02   0.03  -0.00     0.00  -0.02  -0.02     0.05   0.05   0.02
    23   8    -0.10   0.11   0.01    -0.01   0.03  -0.04     0.13  -0.15   0.10
    24   8     0.11  -0.06  -0.04     0.05  -0.06   0.00    -0.10   0.16  -0.13
    25   6    -0.00   0.08   0.06     0.03   0.03   0.02    -0.13  -0.14  -0.07
    26   1    -0.06   0.17   0.03     0.02   0.12  -0.03    -0.10  -0.47   0.11
    27   1     0.01   0.08   0.10     0.08   0.01   0.08    -0.35   0.01  -0.35
    28   1     0.04   0.06   0.15     0.06   0.05   0.04    -0.23  -0.24  -0.12
    29   6    -0.01   0.02   0.03    -0.02   0.02  -0.03     0.02  -0.02  -0.00
    30   7     0.03  -0.17  -0.11    -0.00   0.03  -0.00     0.03  -0.06  -0.03
    31   1    -0.02   0.00   0.03    -0.03   0.04  -0.01     0.02  -0.04  -0.02
    32   6     0.02  -0.16  -0.10     0.02   0.05  -0.03     0.02  -0.05  -0.02
    33   8     0.00  -0.11  -0.09     0.03  -0.02   0.09    -0.01   0.02  -0.01
    34   6    -0.02   0.10   0.09     0.00   0.03  -0.06     0.02   0.03   0.03
    35   1     0.04  -0.29  -0.19     0.03   0.07  -0.01     0.03  -0.08  -0.05
    36   1    -0.03   0.20   0.15     0.00   0.03  -0.08     0.01   0.07   0.06
    37   7    -0.03   0.20   0.14    -0.01   0.01  -0.06     0.01   0.04   0.04
    38   6    -0.02  -0.10  -0.06     0.12   0.01   0.03    -0.02  -0.01  -0.02
    39   1     0.02   0.01  -0.29     0.12  -0.07   0.14    -0.01   0.03  -0.09
    40   1    -0.01  -0.27  -0.21     0.23   0.09  -0.02    -0.05  -0.06  -0.04
    41   1    -0.06  -0.32   0.14     0.14  -0.01   0.06    -0.03  -0.04  -0.00
                     22                     23                     24
                      A                      A                      A
 Frequencies --    320.1863               334.3114               350.0495
 Red. masses --      2.5771                 3.3382                 3.5946
 Frc consts  --      0.1557                 0.2198                 0.2595
 IR Inten    --      0.0000                 0.0000                 0.0000
  Atom  AN      X      Y      Z        X      Y      Z        X      Y      Z
     1   6    -0.01  -0.01   0.03     0.01  -0.07  -0.10    -0.13  -0.01  -0.06
     2   6    -0.06  -0.00   0.02     0.06  -0.01  -0.06    -0.05   0.08   0.02
     3   6    -0.06   0.03   0.02     0.02  -0.00  -0.03     0.01   0.07  -0.09
     4   6     0.03   0.03   0.09     0.02   0.00  -0.06    -0.03   0.06   0.12
     5   1    -0.08  -0.05  -0.00     0.04  -0.02  -0.08    -0.02   0.02   0.08
     6   8    -0.08   0.00   0.01    -0.07   0.01  -0.03     0.14  -0.01  -0.11
     7   6    -0.03   0.11   0.02     0.05  -0.07   0.01     0.01  -0.04  -0.06
     8   6     0.04  -0.00   0.00     0.03   0.05   0.00    -0.02  -0.03  -0.02
     9   6     0.04  -0.14  -0.11     0.02   0.06  -0.00     0.03  -0.02   0.09
    10   1    -0.01  -0.24  -0.18     0.04   0.10   0.02    -0.04  -0.07   0.14
    11   1    -0.09  -0.17  -0.11     0.03   0.05  -0.00     0.15   0.05   0.09
    12   1     0.22  -0.17  -0.18    -0.03   0.08  -0.02     0.03  -0.05   0.20
    13   6     0.14   0.01  -0.11    -0.10   0.06   0.07     0.07  -0.09   0.08
    14   1     0.22   0.08  -0.22    -0.21  -0.04   0.17     0.12   0.01   0.18
    15   1     0.19  -0.16  -0.15    -0.17   0.23   0.07     0.09  -0.10   0.12
    16   1     0.13   0.14  -0.11    -0.06  -0.01   0.07     0.09  -0.23   0.08
    17   1     0.05   0.24   0.13    -0.05  -0.21  -0.09    -0.10  -0.13  -0.05
    18   1     0.05   0.20   0.08     0.08  -0.04  -0.07     0.08   0.38   0.10
    19   1     0.02  -0.00   0.24    -0.06   0.03  -0.08    -0.03  -0.03   0.45
    20   1    -0.17   0.21  -0.08     0.18  -0.17   0.12     0.13  -0.10  -0.03
    21   8     0.01  -0.00   0.01     0.02  -0.02  -0.00    -0.08   0.07  -0.08
    22  16     0.01   0.01   0.01     0.04   0.03   0.03    -0.01   0.04   0.02
    23   8    -0.01   0.01   0.03    -0.06   0.02   0.08     0.02  -0.05   0.06
    24   8     0.01   0.01  -0.02    -0.01   0.06  -0.05     0.06  -0.03   0.00
    25   6    -0.01  -0.01   0.00    -0.03  -0.03   0.00     0.02  -0.01  -0.06
    26   1    -0.01  -0.04   0.02    -0.04  -0.13   0.06     0.10  -0.12  -0.03
    27   1    -0.04   0.01  -0.03    -0.12   0.03  -0.09     0.06  -0.06  -0.08
    28   1    -0.02  -0.03   0.00    -0.06  -0.09   0.02    -0.02   0.07  -0.20
    29   6    -0.06  -0.00  -0.01    -0.11  -0.03  -0.00    -0.03  -0.06  -0.04
    30   7    -0.02  -0.01   0.00    -0.01  -0.03   0.03    -0.01  -0.07  -0.05
    31   1    -0.08  -0.03  -0.00    -0.16  -0.05   0.04    -0.03  -0.03  -0.02
    32   6    -0.01   0.00  -0.02     0.03   0.02  -0.02    -0.02  -0.05  -0.05
    33   8     0.02  -0.05   0.06     0.06  -0.11   0.10     0.02   0.08   0.07
    34   6    -0.04   0.02  -0.04    -0.04   0.05  -0.09    -0.04   0.04   0.01
    35   1     0.01   0.00  -0.02     0.09   0.04  -0.01    -0.02  -0.07  -0.06
    36   1    -0.03   0.04  -0.07    -0.03   0.10  -0.16    -0.04   0.09   0.03
    37   7    -0.06   0.01  -0.03    -0.11   0.01  -0.06    -0.05   0.03   0.01
    38   6     0.07  -0.02   0.05     0.14  -0.03   0.08     0.01  -0.02   0.02
    39   1     0.08  -0.08   0.13     0.14  -0.16   0.27     0.02  -0.04   0.03
    40   1     0.18   0.05  -0.02     0.35   0.11  -0.04     0.06  -0.01  -0.02
    41   1     0.09  -0.06   0.10     0.17  -0.09   0.18     0.01  -0.06   0.07
                     25                     26                     27
                      A                      A                      A
 Frequencies --    391.4735               408.5329               419.0091
 Red. masses --      4.7231                 5.2644                 2.7856
 Frc consts  --      0.4265                 0.5177                 0.2881
 IR Inten    --      0.0000                 0.0000                 0.0000
  Atom  AN      X      Y      Z        X      Y      Z        X      Y      Z
     1   6    -0.05  -0.04  -0.05     0.07   0.14   0.09    -0.02   0.03   0.06
     2   6     0.07   0.05   0.05    -0.09  -0.14  -0.06    -0.07  -0.08   0.02
     3   6     0.04   0.04   0.08    -0.06  -0.07  -0.08    -0.05  -0.07   0.01
     4   6    -0.02  -0.07  -0.10     0.04   0.09   0.01    -0.08   0.06  -0.08
     5   1     0.06   0.03   0.04    -0.08  -0.09  -0.06    -0.06  -0.03   0.04
     6   8    -0.06  -0.06   0.05     0.01   0.08  -0.03     0.04   0.01   0.04
     7   6     0.08  -0.02   0.08    -0.08  -0.03  -0.10    -0.06  -0.09  -0.03
     8   6     0.05   0.06   0.06    -0.01  -0.01  -0.10    -0.00   0.15  -0.04
     9   6     0.04  -0.05  -0.06     0.03   0.04   0.01     0.07  -0.09  -0.04
    10   1     0.01  -0.11  -0.10     0.02   0.06   0.06    -0.08  -0.25  -0.00
    11   1    -0.07  -0.12  -0.05     0.13   0.09   0.01     0.06  -0.16  -0.04
    12   1     0.17  -0.06  -0.15    -0.04   0.04   0.08     0.31  -0.13  -0.10
    13   6     0.01   0.11  -0.03     0.00  -0.07   0.07     0.09   0.10   0.09
    14   1    -0.02   0.05  -0.12     0.03  -0.00   0.16     0.16   0.21   0.13
    15   1     0.00   0.09  -0.06     0.03   0.00   0.17     0.15   0.07   0.17
    16   1    -0.00   0.22  -0.03    -0.04  -0.26   0.08     0.05  -0.05   0.10
    17   1    -0.02  -0.15  -0.01    -0.05   0.01  -0.09    -0.18  -0.27  -0.20
    18   1    -0.03  -0.37  -0.09    -0.05   0.21   0.02    -0.21  -0.15  -0.06
    19   1    -0.10   0.02  -0.37     0.14   0.04   0.09    -0.11   0.13  -0.30
    20   1     0.21  -0.11   0.15    -0.15  -0.01  -0.07     0.09  -0.23   0.21
    21   8     0.01   0.10   0.03     0.17   0.13   0.13    -0.06  -0.02   0.01
    22  16    -0.06  -0.03  -0.02    -0.07  -0.06  -0.03    -0.02   0.04   0.01
    23   8     0.09  -0.05  -0.09     0.10  -0.03  -0.14     0.03  -0.03   0.02
    24   8    -0.06  -0.02   0.08    -0.10  -0.01   0.09     0.08  -0.05  -0.04
    25   6     0.02   0.02  -0.02     0.01   0.02   0.01    -0.01   0.03  -0.04
    26   1     0.04   0.10  -0.08    -0.01   0.18  -0.07     0.02  -0.04  -0.01
    27   1     0.11  -0.05   0.08     0.10  -0.04   0.14    -0.01   0.01  -0.06
    28   1     0.03   0.09  -0.06     0.05   0.05   0.04    -0.04   0.06  -0.10
    29   6    -0.02  -0.12  -0.07    -0.07  -0.05   0.06     0.01   0.03   0.02
    30   7     0.01  -0.10  -0.06     0.05  -0.04   0.10     0.00   0.02   0.01
    31   1    -0.04  -0.07  -0.02    -0.17  -0.21   0.08     0.02   0.01   0.00
    32   6     0.01  -0.11  -0.08     0.11  -0.01   0.02     0.01   0.03   0.02
    33   8     0.01   0.23   0.12    -0.04   0.01  -0.02    -0.01  -0.04  -0.01
    34   6    -0.04   0.07   0.02     0.01   0.05  -0.07     0.02  -0.01  -0.01
    35   1     0.02  -0.14  -0.10     0.24  -0.01   0.02     0.01   0.03   0.02
    36   1    -0.04   0.18   0.06     0.02   0.12  -0.17     0.02  -0.04  -0.02
    37   7    -0.05   0.06   0.03    -0.09   0.02  -0.03     0.02  -0.00  -0.01
    38   6     0.01  -0.02   0.02     0.05  -0.03   0.05     0.01   0.01  -0.01
    39   1     0.02  -0.04   0.02     0.06  -0.11   0.16     0.00   0.01  -0.02
    40   1     0.07  -0.02  -0.04     0.20   0.06  -0.04    -0.01   0.01   0.00
    41   1     0.00  -0.09   0.09     0.08  -0.08   0.13     0.00   0.02  -0.02
                     28                     29                     30
                      A                      A                      A
 Frequencies --    434.5370               466.0610               477.2613
 Red. masses --      5.0088                 5.8883                 5.8716
 Frc consts  --      0.5572                 0.7536                 0.7880
 IR Inten    --      0.0000                 0.0000                 0.0000
  Atom  AN      X      Y      Z        X      Y      Z        X      Y      Z
     1   6     0.01   0.09   0.01    -0.01  -0.05   0.06     0.07   0.02  -0.12
     2   6     0.08  -0.14  -0.10    -0.18   0.00   0.08     0.09   0.01  -0.06
     3   6     0.09  -0.03   0.00    -0.11   0.00  -0.04    -0.01  -0.04   0.12
     4   6     0.00  -0.05   0.02     0.04  -0.13   0.05     0.01   0.15  -0.10
     5   1     0.10  -0.28  -0.05    -0.15   0.09   0.11     0.01   0.03  -0.19
     6   8    -0.04   0.02   0.01     0.06   0.02  -0.04     0.12  -0.06   0.13
     7   6     0.11   0.04   0.08    -0.05  -0.01  -0.01    -0.09  -0.02   0.03
     8   6    -0.02  -0.07   0.09     0.17  -0.02  -0.01    -0.16   0.07   0.03
     9   6    -0.09  -0.00   0.04     0.16   0.07  -0.09    -0.17  -0.07   0.04
    10   1    -0.01   0.06   0.01     0.24   0.14  -0.13    -0.23  -0.15   0.03
    11   1    -0.13  -0.00   0.04     0.10   0.06  -0.09    -0.21  -0.11   0.04
    12   1    -0.15   0.02   0.02     0.09   0.10  -0.11    -0.04  -0.09  -0.00
    13   6    -0.01  -0.03  -0.07    -0.08   0.04   0.01     0.09   0.02   0.02
    14   1    -0.02  -0.07  -0.17    -0.25  -0.18  -0.02     0.26   0.25   0.06
    15   1    -0.03  -0.12  -0.17    -0.15   0.30   0.08     0.16  -0.25  -0.04
    16   1     0.02   0.16  -0.08    -0.17   0.07   0.03     0.17  -0.03   0.00
    17   1     0.21   0.14   0.13    -0.12  -0.01   0.12    -0.07  -0.08  -0.12
    18   1     0.03  -0.19   0.02    -0.04  -0.21   0.06     0.13   0.23  -0.11
    19   1     0.08  -0.04  -0.11     0.00  -0.08  -0.06     0.01   0.12   0.03
    20   1     0.01   0.12  -0.05    -0.10  -0.01   0.05    -0.01  -0.07   0.08
    21   8    -0.09   0.05  -0.06     0.11   0.04  -0.08     0.08   0.03  -0.13
    22  16    -0.09   0.12  -0.02     0.01   0.02  -0.10     0.09  -0.04  -0.09
    23   8     0.03  -0.16   0.08    -0.13  -0.18   0.08    -0.18  -0.08   0.06
    24   8     0.15  -0.07   0.08     0.04   0.07   0.26    -0.02   0.13   0.19
    25   6    -0.06   0.12  -0.13    -0.05   0.09  -0.07     0.00  -0.00   0.00
    26   1     0.05  -0.00  -0.11    -0.07   0.13  -0.09    -0.07   0.08  -0.01
    27   1     0.02   0.03  -0.14    -0.05   0.10  -0.06    -0.07   0.07  -0.01
    28   1    -0.11   0.24  -0.31    -0.03   0.05  -0.01     0.04  -0.11   0.15
    29   6    -0.03  -0.01   0.06     0.03   0.03  -0.03    -0.03  -0.03   0.01
    30   7     0.03  -0.02   0.08    -0.02   0.02  -0.05     0.01  -0.01   0.02
    31   1    -0.09  -0.10   0.08     0.08   0.08  -0.05    -0.07  -0.06   0.03
    32   6     0.09   0.02   0.04    -0.05   0.01  -0.02     0.02  -0.02   0.00
    33   8    -0.06  -0.02  -0.08     0.04  -0.07   0.07     0.00   0.04  -0.07
    34   6     0.03   0.02  -0.05    -0.00  -0.03   0.02    -0.02   0.01  -0.01
    35   1     0.19   0.03   0.04    -0.12  -0.01  -0.03     0.04  -0.03  -0.00
    36   1     0.04   0.04  -0.12    -0.01  -0.08   0.06    -0.01   0.05  -0.04
    37   7    -0.03   0.00  -0.03     0.04  -0.01   0.01    -0.04  -0.00  -0.00
    38   6     0.03  -0.00   0.02    -0.01   0.01  -0.02    -0.01  -0.02   0.03
    39   1     0.04  -0.05   0.08    -0.01   0.04  -0.06    -0.01  -0.04   0.06
    40   1     0.10   0.04  -0.02    -0.06  -0.01   0.01     0.03   0.00   0.00
    41   1     0.04  -0.02   0.05    -0.02   0.03  -0.05     0.00  -0.03   0.05
                     31                     32                     33
                      A                      A                      A
 Frequencies --    483.7339               500.8384               525.2117
 Red. masses --      4.4916                 4.8973                 4.8145
 Frc consts  --      0.6192                 0.7238                 0.7825
 IR Inten    --      0.0000                 0.0000                 0.0000
  Atom  AN      X      Y      Z        X      Y      Z        X      Y      Z
     1   6     0.05  -0.02  -0.05     0.06  -0.02   0.03     0.05   0.05  -0.17
     2   6     0.14  -0.03  -0.01     0.04   0.06   0.07    -0.05   0.03  -0.08
     3   6     0.05  -0.10   0.06    -0.04  -0.14   0.09    -0.14  -0.08   0.05
     4   6     0.03   0.12  -0.07     0.07   0.03  -0.03     0.16  -0.01  -0.05
     5   1     0.13   0.02  -0.04    -0.00   0.09   0.00    -0.13   0.17  -0.23
     6   8    -0.13   0.01   0.11    -0.05   0.00   0.16     0.22  -0.03   0.10
     7   6    -0.00   0.01  -0.08    -0.07  -0.01  -0.08    -0.14  -0.03   0.09
     8   6    -0.06   0.00  -0.12     0.09  -0.03  -0.14     0.07  -0.05   0.09
     9   6    -0.00   0.02   0.01     0.16   0.08  -0.07     0.00   0.03  -0.05
    10   1    -0.04   0.01   0.09     0.20   0.14  -0.05     0.15   0.13  -0.19
    11   1     0.14   0.07   0.01     0.23   0.13  -0.07    -0.21  -0.00  -0.05
    12   1    -0.04   0.01   0.10     0.03   0.09  -0.00    -0.07   0.08  -0.14
    13   6    -0.00  -0.07   0.01    -0.04  -0.07   0.01    -0.02   0.01  -0.01
    14   1     0.05   0.03   0.13    -0.11  -0.13   0.07    -0.09  -0.10  -0.08
    15   1     0.03  -0.05   0.07    -0.04   0.14   0.16    -0.06   0.05  -0.04
    16   1     0.01  -0.25   0.02    -0.14  -0.23   0.03    -0.03   0.14  -0.01
    17   1     0.21   0.16  -0.15     0.17   0.22  -0.02    -0.11   0.06   0.22
    18   1     0.06   0.35  -0.08     0.01   0.19  -0.03     0.34  -0.04  -0.07
    19   1     0.04   0.05   0.17     0.10  -0.02   0.11     0.17  -0.02  -0.03
    20   1    -0.15   0.11  -0.16    -0.34   0.14  -0.15    -0.29   0.03   0.12
    21   8     0.03   0.03   0.08    -0.16  -0.14  -0.07    -0.01   0.08  -0.06
    22  16    -0.06   0.04  -0.01     0.03   0.02  -0.01    -0.09   0.02   0.08
    23   8     0.06  -0.07  -0.00    -0.04   0.00   0.05     0.09   0.06  -0.01
    24   8     0.04  -0.04   0.04     0.06  -0.00  -0.03    -0.03  -0.07  -0.07
    25   6    -0.04   0.07  -0.06    -0.00   0.01  -0.01    -0.00  -0.00   0.01
    26   1    -0.01   0.06  -0.07    -0.01  -0.03   0.02     0.09  -0.07   0.01
    27   1    -0.00   0.03  -0.04    -0.05   0.04  -0.06     0.10  -0.11   0.04
    28   1    -0.05   0.11  -0.11    -0.01  -0.02   0.01    -0.03   0.12  -0.16
    29   6     0.02   0.02  -0.09    -0.02  -0.08  -0.00    -0.03   0.03  -0.00
    30   7    -0.04   0.05  -0.10     0.02  -0.01   0.06     0.01   0.00  -0.04
    31   1     0.11   0.20  -0.09    -0.10  -0.13   0.05    -0.03   0.00  -0.02
    32   6    -0.12  -0.00  -0.05     0.06  -0.06  -0.00    -0.04   0.01   0.01
    33   8     0.14  -0.09   0.17    -0.08   0.21  -0.07     0.09  -0.05  -0.01
    34   6    -0.04  -0.05   0.06    -0.00   0.05  -0.01    -0.03  -0.01   0.01
    35   1    -0.30  -0.04  -0.07     0.15  -0.06  -0.00    -0.10   0.01   0.01
    36   1    -0.05  -0.11   0.13     0.00   0.12  -0.04    -0.03  -0.01  -0.01
    37   7     0.03  -0.01   0.04    -0.05   0.02  -0.00    -0.03  -0.03   0.01
    38   6    -0.04  -0.00  -0.00    -0.00  -0.02   0.02    -0.03  -0.03   0.04
    39   1    -0.04   0.04  -0.07     0.00  -0.05   0.06    -0.04  -0.03   0.05
    40   1    -0.11  -0.05   0.04     0.06   0.01  -0.02    -0.03  -0.02   0.04
    41   1    -0.05   0.02  -0.04     0.01  -0.05   0.06    -0.03  -0.02   0.04
                     34                     35                     36
                      A                      A                      A
 Frequencies --    546.2451               567.7315               578.0304
 Red. masses --      4.0590                 3.8499                 4.7039
 Frc consts  --      0.7136                 0.7311                 0.9260
 IR Inten    --      0.0000                 0.0000                 0.0000
  Atom  AN      X      Y      Z        X      Y      Z        X      Y      Z
     1   6     0.05   0.17   0.08     0.08  -0.05  -0.01    -0.06  -0.05  -0.04
     2   6    -0.04  -0.16  -0.06    -0.04  -0.00   0.01     0.04   0.09   0.02
     3   6     0.00  -0.02  -0.04    -0.03   0.31   0.15     0.01  -0.15  -0.07
     4   6     0.04   0.02  -0.00     0.06   0.03  -0.05    -0.04  -0.03   0.03
     5   1    -0.09  -0.44  -0.11    -0.16  -0.19  -0.19     0.10   0.23   0.11
     6   8     0.01   0.03  -0.02     0.00  -0.13  -0.00     0.01   0.06   0.01
     7   6     0.01  -0.01   0.01    -0.05   0.05  -0.01     0.01  -0.03   0.00
     8   6     0.00  -0.02   0.02     0.00  -0.02  -0.06    -0.00   0.02   0.03
     9   6    -0.02   0.01   0.01     0.02   0.02  -0.02    -0.01  -0.02   0.01
    10   1     0.02   0.04  -0.01     0.05   0.05  -0.02    -0.03  -0.04   0.01
    11   1    -0.04   0.00   0.01     0.05   0.07  -0.02    -0.03  -0.04   0.01
    12   1    -0.06   0.02  -0.00    -0.03   0.03   0.02     0.03  -0.02  -0.02
    13   6    -0.01  -0.02  -0.01    -0.01  -0.05  -0.02     0.01   0.04   0.01
    14   1    -0.00  -0.03  -0.03    -0.02  -0.05   0.02     0.01   0.04  -0.00
    15   1    -0.01  -0.03  -0.02    -0.01  -0.01   0.01     0.01   0.02   0.00
    16   1    -0.00   0.01  -0.01    -0.01  -0.11  -0.01     0.01   0.07   0.01
    17   1    -0.01  -0.02   0.03    -0.39  -0.25  -0.05     0.19   0.13   0.02
    18   1    -0.07  -0.18   0.01     0.04   0.13  -0.05     0.03   0.00   0.02
    19   1     0.16   0.04  -0.23     0.07  -0.01   0.05    -0.11  -0.02   0.07
    20   1     0.02  -0.01   0.01     0.42  -0.16  -0.04    -0.24   0.08   0.03
    21   8    -0.07   0.01  -0.14     0.02  -0.07   0.10     0.03   0.02   0.01
    22  16     0.03  -0.02   0.01    -0.02   0.02   0.00    -0.00  -0.00   0.00
    23   8    -0.05   0.05   0.01     0.03  -0.02   0.00     0.01  -0.00  -0.00
    24   8    -0.02   0.03  -0.02     0.03  -0.03   0.00    -0.01   0.00   0.01
    25   6     0.04  -0.06   0.05    -0.03   0.05  -0.04    -0.00   0.00   0.00
    26   1     0.04  -0.07   0.05    -0.04   0.05  -0.04    -0.00   0.01  -0.00
    27   1     0.03  -0.05   0.03    -0.03   0.05  -0.04     0.00  -0.00   0.00
    28   1     0.03  -0.05   0.04    -0.03   0.04  -0.03    -0.00   0.00  -0.00
    29   6     0.03  -0.11  -0.13    -0.00  -0.07  -0.05     0.02  -0.17  -0.09
    30   7    -0.03   0.17   0.07     0.00   0.05   0.03     0.01  -0.06  -0.03
    31   1     0.09  -0.42  -0.35     0.00  -0.29  -0.17     0.02   0.01   0.01
    32   6    -0.02  -0.08  -0.07     0.01   0.03   0.03    -0.00   0.18   0.12
    33   8     0.02   0.02   0.16     0.00  -0.02  -0.07    -0.02  -0.01  -0.03
    34   6     0.01  -0.05   0.00     0.01  -0.09  -0.06     0.05  -0.23  -0.18
    35   1    -0.07  -0.17  -0.14     0.01   0.03   0.03     0.02   0.28   0.19
    36   1     0.01  -0.12   0.00     0.02  -0.15  -0.13     0.08  -0.41  -0.32
    37   7     0.01   0.11   0.09    -0.03   0.10   0.07    -0.03   0.24   0.15
    38   6    -0.00   0.01  -0.00    -0.01  -0.00   0.02     0.00   0.02   0.01
    39   1     0.03   0.04  -0.10     0.02   0.01  -0.04     0.07   0.04  -0.12
    40   1    -0.03  -0.03  -0.01     0.01  -0.02  -0.01     0.03  -0.04  -0.07
    41   1    -0.05  -0.05   0.03    -0.05  -0.07   0.07    -0.07  -0.15   0.13
                     37                     38                     39
                      A                      A                      A
 Frequencies --    590.7289               611.1736               616.8134
 Red. masses --      4.8702                 5.0954                 1.4573
 Frc consts  --      1.0013                 1.1214                 0.3267
 IR Inten    --      0.0000                 0.0000                 0.0000
  Atom  AN      X      Y      Z        X      Y      Z        X      Y      Z
     1   6    -0.01   0.10   0.08     0.11  -0.02   0.05     0.04   0.06   0.04
     2   6    -0.01  -0.10   0.02    -0.02   0.08   0.00    -0.03  -0.08  -0.02
     3   6     0.04   0.04   0.06    -0.04  -0.07  -0.17     0.00   0.04   0.00
     4   6    -0.01   0.01   0.00     0.08   0.02  -0.01     0.03   0.02  -0.01
     5   1    -0.05  -0.37  -0.01    -0.03   0.08  -0.03     0.01   0.13   0.04
     6   8    -0.05  -0.03   0.04     0.03   0.09  -0.14    -0.00  -0.01  -0.02
     7   6     0.05   0.01  -0.02    -0.05  -0.02   0.02    -0.00   0.01   0.00
     8   6     0.01  -0.02  -0.05    -0.02   0.00   0.09    -0.00  -0.01   0.01
     9   6     0.04   0.02  -0.01    -0.11  -0.02   0.04    -0.01   0.00   0.00
    10   1     0.04   0.03   0.02    -0.06  -0.00  -0.02     0.01   0.02  -0.01
    11   1     0.11   0.04  -0.01    -0.22  -0.06   0.04    -0.02   0.01   0.00
    12   1     0.00   0.01   0.03    -0.10  -0.01  -0.02    -0.03   0.01  -0.00
    13   6    -0.01  -0.05  -0.02     0.01   0.04   0.01    -0.00  -0.01  -0.00
    14   1    -0.03  -0.05   0.01     0.04   0.07  -0.03     0.00  -0.01  -0.01
    15   1    -0.01   0.00   0.02     0.01  -0.07  -0.06    -0.00  -0.03  -0.01
    16   1    -0.03  -0.09  -0.01     0.05   0.13   0.00     0.00  -0.00  -0.00
    17   1     0.01  -0.03  -0.05    -0.05   0.02   0.08    -0.05  -0.03   0.01
    18   1    -0.15  -0.09   0.02     0.05  -0.19  -0.00    -0.02  -0.06   0.00
    19   1     0.08   0.02  -0.15     0.10   0.06  -0.20     0.09   0.03  -0.10
    20   1     0.15  -0.02  -0.07    -0.16   0.01   0.09     0.05  -0.02   0.00
    21   8    -0.05   0.06  -0.10    -0.06  -0.19   0.20    -0.03  -0.03  -0.00
    22  16     0.02  -0.02  -0.00     0.03   0.01  -0.04     0.01   0.00  -0.01
    23   8    -0.03   0.02  -0.00     0.00  -0.05   0.01    -0.01   0.00   0.00
    24   8    -0.02   0.03  -0.00     0.06  -0.01   0.01     0.01   0.01  -0.00
    25   6     0.03  -0.05   0.04    -0.03   0.07  -0.07     0.01  -0.01   0.01
    26   1     0.04  -0.06   0.04    -0.12   0.13  -0.06    -0.00  -0.01   0.02
    27   1     0.04  -0.06   0.04    -0.13   0.17  -0.10    -0.01   0.01  -0.00
    28   1     0.03  -0.04   0.02    -0.00  -0.06   0.09     0.01  -0.03   0.03
    29   6    -0.07   0.23   0.10    -0.06   0.07  -0.02    -0.01  -0.07  -0.06
    30   7     0.09  -0.21  -0.21     0.06   0.04  -0.06     0.02  -0.03  -0.03
    31   1    -0.06  -0.43  -0.25    -0.05  -0.41  -0.28    -0.05   0.83   0.45
    32   6    -0.05   0.13   0.10    -0.00  -0.01  -0.01    -0.00   0.03   0.02
    33   8     0.11   0.08   0.02     0.14   0.13   0.01     0.03   0.03   0.01
    34   6    -0.02  -0.11  -0.06    -0.01  -0.01   0.00    -0.00   0.01   0.00
    35   1    -0.16   0.24   0.18    -0.12  -0.04  -0.03    -0.04   0.08   0.05
    36   1    -0.01  -0.09  -0.10    -0.00   0.05  -0.06     0.00   0.01  -0.03
    37   7    -0.04  -0.03   0.02    -0.07  -0.04   0.03    -0.02  -0.01   0.01
    38   6    -0.05  -0.05   0.07    -0.09  -0.08   0.11    -0.03  -0.03   0.03
    39   1    -0.04  -0.04   0.06    -0.08  -0.09   0.11    -0.03  -0.03   0.05
    40   1    -0.05  -0.05   0.06    -0.07  -0.07   0.10    -0.01  -0.02   0.02
    41   1    -0.05  -0.05   0.07    -0.08  -0.08   0.11    -0.02  -0.02   0.03
                     40                     41                     42
                      A                      A                      A
 Frequencies --    658.9793               722.5930               738.7066
 Red. masses --      5.5240                 4.8351                 5.1457
 Frc consts  --      1.4133                 1.4875                 1.6544
 IR Inten    --      0.0000                 0.0000                 0.0000
  Atom  AN      X      Y      Z        X      Y      Z        X      Y      Z
     1   6    -0.09  -0.05   0.01     0.05  -0.02   0.04     0.04  -0.05   0.04
     2   6    -0.01   0.03   0.07    -0.01  -0.00   0.04    -0.04  -0.00   0.09
     3   6     0.04  -0.01   0.03     0.01  -0.01  -0.02     0.02  -0.00  -0.02
     4   6    -0.11  -0.06   0.05     0.02  -0.01   0.02     0.01  -0.02   0.04
     5   1     0.05   0.02   0.18    -0.07  -0.29  -0.03     0.01   0.06   0.15
     6   8    -0.04  -0.01   0.04    -0.01   0.01  -0.01    -0.03   0.01  -0.02
     7   6     0.07   0.00  -0.03     0.00   0.00  -0.03     0.03  -0.00  -0.05
     8   6    -0.01   0.02  -0.04    -0.02   0.02  -0.01    -0.02   0.02  -0.02
     9   6     0.03   0.00  -0.01    -0.04  -0.01   0.01    -0.04  -0.01   0.02
    10   1    -0.04  -0.05   0.06    -0.06  -0.02   0.03    -0.07  -0.03   0.05
    11   1     0.12   0.00  -0.01    -0.01  -0.01   0.01     0.00  -0.01   0.02
    12   1     0.07  -0.02   0.03    -0.02  -0.01   0.02    -0.03  -0.02   0.03
    13   6    -0.00   0.01  -0.00     0.00   0.03   0.01     0.00   0.03   0.01
    14   1    -0.01   0.02   0.03     0.03   0.06   0.03     0.03   0.07   0.03
    15   1     0.00   0.04   0.03     0.02  -0.00   0.01     0.02   0.01   0.02
    16   1    -0.01  -0.04  -0.00     0.01  -0.00   0.01     0.02  -0.01   0.00
    17   1     0.13   0.03  -0.08    -0.01  -0.02  -0.07     0.06   0.01  -0.09
    18   1    -0.17  -0.07   0.06    -0.07  -0.05   0.03    -0.10  -0.15   0.05
    19   1    -0.14  -0.03   0.01     0.02   0.01  -0.04     0.02   0.02  -0.12
    20   1     0.04   0.02  -0.06     0.03  -0.01  -0.02     0.02   0.01  -0.06
    21   8     0.07   0.08  -0.09     0.11  -0.05  -0.15     0.08  -0.03  -0.09
    22  16    -0.02   0.00   0.02     0.06  -0.12   0.13    -0.06   0.05   0.00
    23   8     0.00   0.01   0.00     0.04   0.10   0.08     0.00  -0.00  -0.00
    24   8    -0.03  -0.00   0.00    -0.11  -0.07  -0.01     0.00  -0.00  -0.00
[...]
 04942,-0.00096401,0.00018176,0.00339506,0.00119081,0.00386074,-0.00300
 394,-0.00003931,-0.00077654,0.00125293,-0.00123790,-0.00199480,-0.0006
 6089,-0.00004464,-0.00030089,0.00037307,-0.00012075,0.00009146,0.00009
 106,0.00000739,-0.00013781,-0.00015973,-0.00006781,0.00009140,-0.00008
 568,0.05024763,0.15955342,-0.17991647,-0.00627544,0.01944230,-0.002608
 00,0.00096972,0.01399355,-0.01531719,0.02327844,-0.03424903,0.00750006
 ,-0.00080119,0.00968731,-0.00357648,0.11550313,-0.01683401,-0.15918263
 ,0.00272911,0.00266805,0.00201477,0.01559120,-0.00536909,-0.01574871,-
 0.20917731,-0.16844930,0.43491595,-0.00022026,0.00040692,0.00016428,0.
 00003070,-0.00028136,0.00002138,0.00017537,0.00019010,-0.00008331,0.00
 007408,-0.00000878,-0.00001523,0.00003025,-0.00000047,-0.00002125,-0.0
 0016609,-0.00019036,0.00002459,0.00001521,0.00002340,-0.00001052,0.000
 03388,0.00001222,0.00002535,0.00002726,-0.00001730,0.00002018,-0.00000
 061,0.00000274,-0.00000650,-0.00000961,0.00000612,-0.00000441,0.000000
 78,-0.00000906,-0.00002009,0.00004032,0.00005144,0.00004303,-0.0000043
 0,-0.00000935,-0.00000564,-0.00001074,-0.00005277,0.00000121,-0.000036
 02,0.00000486,0.00000436,0.00000396,-0.00001361,-0.00003423,-0.0000447
 3,0.00000449,0.00000226,-0.00000363,0.00004309,-0.00001222,0.00000562,
 0.00001501,-0.00000439,-0.00005917,0.00005200,-0.00023257,0.00006610,0
 .00000402,0.00037609,0.00009541,-0.00009112,-0.00004656,-0.00001223,0.
 00007387,-0.00017874,-0.00000262,-0.00003371,-0.00004022,-0.00000585,-
 0.00000652,0.00000958,0.00001883,0.00000063,0.00000849,0.00000327,-0.0
 0000877,-0.00000255,0.00080598,-0.00663089,-0.00264167,-0.00022503,0.0
 0048587,0.00326880,0.00024900,-0.00075870,-0.00032741,-0.00162645,0.00
 395980,0.00323313,0.00113393,-0.00046797,0.00053534,-0.01226215,0.0162
 9506,-0.00357512,0.00035714,0.00125653,0.00016760,-0.00011901,-0.00010
 521,-0.00073450,-0.10899372,0.07819659,0.00788204,0.50662302,0.0002776
 8,-0.00006625,-0.00023928,0.00021252,0.00053872,-0.00035049,-0.0003363
 7,0.00004696,0.00058818,-0.00006021,-0.00003821,-0.00000639,-0.0001570
 9,-0.00014862,-0.00005809,0.00035040,-0.00013848,-0.00019769,-0.000069
 58,0.00001556,-0.00009823,0.00001306,0.00004290,-0.00001885,-0.0000249
 7,0.00001373,-0.00002933,0.00001608,-0.00000764,-0.00000888,-0.0000088
 4,0.00000871,0.00000307,0.00002222,0.00000240,0.00002655,-0.00005638,-
 0.00002453,-0.00002998,0.00000465,-0.00000743,0.00000410,0.00003620,0.
 00004475,-0.00001808,-0.00000436,0.00000665,-0.00000481,-0.00000933,-0
 .00000060,0.00000569,0.00000752,0.00001210,0.00000617,0.00002403,-0.00
 006687,0.00001308,0.00000393,-0.00003935,0.00001196,-0.00002675,0.0001
 1476,0.00034005,-0.00022741,-0.00023819,-0.00049279,0.00009341,0.00012
 391,0.00010910,0.00024001,0.00009476,0.00029949,-0.00003046,0.00011704
 ,0.00010445,0.00003143,-0.00000398,-0.00002294,0.00001092,0.00001514,-
 0.00001291,0.00001007,-0.00000874,-0.00002171,0.00837942,-0.01810998,0
 .00089513,0.00439838,-0.00649594,0.00186693,-0.00031839,0.00040244,-0.
 00041231,0.00077687,-0.00042850,0.00143850,0.00105404,-0.00080596,0.00
 029777,0.00382453,-0.00610238,-0.00222119,0.00037747,-0.00005498,0.000
 35441,-0.00063620,0.00040041,-0.00004113,0.07362246,-0.18808081,0.0123
 7877,0.02576672,0.47680810,-0.00026304,-0.00009578,-0.00013814,0.00041
 827,0.00023916,-0.00035211,-0.00050364,0.00012669,0.00064294,0.0000565
 9,0.00000058,0.00001399,-0.00010002,-0.00007136,-0.00008182,0.00040071
 ,-0.00027330,-0.00027144,-0.00003302,0.00001900,-0.00005771,0.00001318
 ,0.00001965,0.00004120,-0.00000738,0.00000588,0.00000318,0.00000045,0.
 00001727,-0.00000428,-0.00001403,0.00001442,0.00000919,-0.00000040,0.0
 0000275,0.00001257,0.00000195,0.00002713,-0.00001774,0.00000299,0.0000
 2569,-0.00002508,-0.00001675,0.00002463,0.00004792,-0.00000211,0.00000
 426,0.00002029,-0.00000540,0.00001897,-0.00003305,0.00000027,-0.000011
 45,0.00000321,0.00001289,0.00000432,-0.00000610,-0.00000568,0.00000566
 ,0.00001130,-0.00004845,0.00014395,0.00013280,0.00008951,-0.00028349,-
 0.00024844,0.00007267,0.00009715,0.00010021,-0.00004326,0.00009483,0.0
 0010691,-0.00003241,0.00002683,0.00006017,0.00000883,0.00000219,0.0000
 1573,-0.00000316,-0.00000866,0.00001609,0.00000001,-0.00002087,0.00000
 184,-0.01226747,0.00957722,0.00071754,0.00107645,0.00412720,-0.0002140
 4,-0.00072785,0.00036620,-0.00011536,0.00546117,0.00030818,-0.00158657
 ,-0.00031270,0.00163549,0.00050591,0.00757627,-0.01860290,-0.00085674,
 0.00066887,-0.00062493,0.00081982,-0.00059570,-0.00053976,-0.00012513,
 0.00875729,0.01509476,-0.06820362,-0.01991760,-0.00428972,0.52296436,-
 0.00036511,0.00006627,0.00007139,0.00007588,-0.00014186,-0.00004167,0.
 00006555,0.00035582,-0.00001749,0.00000192,0.00000646,0.00000589,-0.00
 003431,0.00002619,0.00004017,-0.00004771,-0.00028993,-0.00000206,0.000
 00403,-0.00000799,0.00001631,-0.00002016,0.00001360,-0.00001494,0.0000
 0435,0.00000988,-0.00000338,-0.00000926,-0.00000337,0.00000730,0.00000
 654,-0.00001810,-0.00000129,-0.00001192,-0.00000306,-0.00000383,-0.000
 00785,0.00000777,-0.00001303,0.00000274,-0.00000236,0.00000688,-0.0000
 1084,-0.00000912,-0.00000065,0.00002412,-0.00001766,0.00000032,0.00000
 100,-0.00000273,0.00001967,0.00001893,-0.00002608,0.00000275,-0.000004
 75,-0.00000503,0.00000073,0.00000432,-0.00001520,0.00000333,0.00009005
 ,-0.00009078,-0.00001286,-0.00018271,0.00044927,0.00009265,0.00006047,
 -0.00018729,-0.00003913,0.00008407,-0.00027526,-0.00010528,0.00002169,
 -0.00004953,-0.00002956,0.00000657,0.00000191,-0.00000895,0.00000451,-
 0.00000544,-0.00000896,-0.00001335,0.00000280,-0.00000180,-0.00051950,
 0.00178245,0.00109238,-0.00037151,0.00072491,-0.00028384,-0.00009974,0
 .00011498,-0.00016434,0.00020014,-0.00022319,-0.00029439,-0.00003147,0
 .00036140,-0.00022668,0.00056092,0.00116328,0.00006164,-0.00008499,-0.
 00004848,-0.00010421,0.00013126,0.00001820,-0.00004296,0.01119757,0.01
 348985,-0.00104567,-0.14413572,-0.12102337,0.00310959,0.16124698,0.000
 21751,0.00022343,0.00008331,-0.00017576,-0.00001407,0.00014106,0.00020
 798,-0.00007423,-0.00025867,0.00001197,-0.00001890,-0.00000034,0.00006
 608,0.00002427,0.00004383,-0.00018327,0.00010331,0.00010065,0.00001651
 ,-0.00001677,0.00004246,-0.00000076,0.00000618,-0.00000908,0.00000368,
 -0.00000622,0.00001250,-0.00000644,-0.00000118,0.00000477,-0.00000029,
 -0.00000300,-0.00000546,-0.00000681,-0.00000058,-0.00001004,0.00001258
 ,0.00000963,0.00001878,-0.00000718,-0.00000714,0.00001042,-0.00000424,
 -0.00003780,-0.00001828,-0.00000857,-0.00000416,-0.00000980,0.00000098
 ,0.00000024,0.00000390,-0.00001423,0.00000652,-0.00000189,-0.00001277,
 0.00001467,-0.00000189,-0.00000008,0.00001090,-0.00000448,-0.00005180,
 -0.00003299,-0.00013754,0.00005702,0.00003974,0.00030618,-0.00003014,-
 0.00002533,-0.00006061,-0.00001842,0.00001866,-0.00015255,0.00002238,-
 0.00003374,-0.00006223,-0.00000871,-0.00000343,0.00001183,-0.00000274,
 0.00000169,0.00000412,-0.00000816,0.00000091,-0.00000711,0.00095969,-0
 .00315441,-0.00377209,0.00067184,-0.00044612,0.00042839,0.00010083,0.0
 0020655,-0.00029450,-0.00014100,-0.00014519,0.00095485,0.00042765,-0.0
 0055885,0.00027766,-0.00136603,0.00044922,0.00052470,0.00005197,0.0002
 0393,0.00006574,-0.00001335,-0.00006572,-0.00028123,-0.00983942,-0.036
 28348,0.00523798,-0.11688325,-0.17587790,0.00104181,0.13281045,0.21604
 740,-0.00005196,0.00003377,0.00004723,0.00002614,0.00003447,0.00005462
 ,0.00001492,-0.00008081,0.00003051,-0.00000324,0.00000482,-0.00000414,
 -0.00000639,0.00000583,-0.00004000,-0.00000748,0.00003032,-0.00005789,
 0.00000545,0.00000448,-0.00000023,-0.00000171,0.00000629,0.00000353,0.
 00000201,0.00000413,-0.00000152,0.00000361,-0.00000318,-0.00000185,0.0
 0000331,-0.00000486,-0.00000603,-0.00000022,-0.00000607,-0.00000287,-0
 .00000380,-0.00000071,-0.00000853,0.00000661,-0.00000275,-0.00000071,0
 .00001394,-0.00000554,0.00000804,0.00000401,0.00000030,-0.00000009,0.0
 0000502,0.00000163,0.00000688,0.00000395,-0.00000138,-0.00000437,-0.00
 000091,-0.00000302,-0.00000322,-0.00000157,-0.00000582,0.00000360,-0.0
 0001119,0.00003047,-0.00011535,-0.00002842,-0.00018071,0.00010882,0.00
 001118,0.00002341,0.00000214,0.00004169,0.00011820,-0.00003944,-0.0000
 0068,0.00000789,-0.00002294,-0.00000197,0.00000034,-0.00000063,-0.0000
 0250,0.00000525,0.00000092,-0.00001009,-0.00000207,-0.00000306,-0.0006
 2363,0.00155050,0.00003832,0.00039115,-0.00025732,-0.00061799,0.000056
 48,-0.00009349,0.00013862,-0.00005845,-0.00042812,0.00011637,-0.000020
 86,0.00006660,0.00009419,-0.00026108,-0.00006981,0.00069497,0.00000920
 ,0.00002134,0.00001307,0.00036558,-0.00024920,-0.00014001,0.00126443,0
 .00239182,0.00123733,0.00214920,0.00138531,-0.04308829,-0.00180327,-0.
 00378482,0.04413547,-0.00026965,0.00018353,0.00020156,-0.00006273,-0.0
 0023369,0.00009527,0.00036872,0.00017309,-0.00009759,-0.00001212,0.000
 00922,-0.00000542,0.00001805,0.00003100,-0.00003546,-0.00023270,-0.000
 04538,-0.00005682,-0.00000539,0.00002674,-0.00000444,-0.00001416,0.000
 03147,0.00000187,-0.00000374,0.00000203,-0.00000701,-0.00000277,-0.000
 00187,-0.00000118,-0.00000409,-0.00000787,0.00000155,-0.00000531,-0.00
 000655,0.00000415,-0.00002549,0.00000364,-0.00001166,0.00000347,-0.000
 00701,0.00000234,0.00001583,0.00001338,-0.00000392,0.00000261,-0.00000
 591,0.00000192,0.00000230,-0.00000167,0.00001090,0.00000342,-0.0000102
 6,0.00000537,-0.00000219,-0.00001531,0.00000187,-0.00000125,-0.0000184
 2,-0.00000074,-0.00000538,-0.00000080,-0.00019413,0.00003191,-0.000060
 00,0.00022814,0.00002113,-0.00006998,-0.00007797,0.00002567,0.00013615
 ,-0.00003378,-0.00001351,0.00001502,-0.00001464,-0.00000204,-0.0000061
 3,-0.00000373,0.00000574,0.00000476,-0.00000130,0.00000246,-0.00000894
 ,-0.00000574,0.00038550,0.00006585,-0.00023947,0.00037629,-0.00093138,
 0.00007471,0.00021785,0.00012122,-0.00004400,-0.00072640,0.00030224,0.
 00061492,0.00026821,-0.00032700,-0.00006020,-0.00093936,0.00370486,0.0
 0018900,-0.00003371,0.00015146,-0.00014108,0.00025620,-0.00002303,-0.0
 0028250,-0.01540241,0.00624610,0.01558362,-0.12738747,0.00654999,0.114
 75791,-0.01389488,-0.00220058,0.01827404,0.14732337,0.00058897,0.00007
 107,-0.00015800,-0.00015892,0.00017249,0.00014449,0.00015379,-0.000273
 82,0.00000670,0.00000428,-0.00001655,0.00000755,0.00001305,-0.00004120
 ,-0.00007155,-0.00016017,0.00021868,-0.00000400,-0.00000559,0.00003931
 ,-0.00000826,0.00002681,-0.00001798,0.00001998,-0.00000277,0.00000263,
 0.00000387,0.00000195,0.00000005,-0.00000711,-0.00001752,0.00000900,-0
 .00000765,0.00000072,0.00000195,-0.00000558,0.00001890,-0.00000604,0.0
 0001874,-0.00000032,0.00000456,-0.00001109,0.00002409,-0.00001103,0.00
 001469,-0.00002783,0.00001097,-0.00000543,-0.00000655,0.00000297,-0.00
 001835,-0.00003646,0.00002125,-0.00001422,-0.00000311,0.00002026,-0.00
 000751,-0.00000545,0.00003288,-0.00001126,-0.00012601,-0.00000118,0.00
 014885,0.00028945,-0.00005144,-0.00025730,-0.00009241,-0.00000015,0.00
 007237,-0.00016524,0.00009491,0.00011555,-0.00003473,0.00000309,0.0000
 3364,-0.00001764,0.00001278,0.00001588,-0.00000200,-0.00000411,-0.0000
 0052,-0.00000598,0.00000262,0.00000380,0.00116828,0.00086491,-0.001769
 37,-0.00043327,0.00112759,-0.00051581,0.00013501,-0.00056146,0.0002684
 5,0.00131349,-0.00103688,-0.00026853,-0.00027471,-0.00008402,0.0000277
 3,0.00177237,-0.00438236,0.00056983,0.00010817,-0.00027187,0.00016067,
 -0.00004890,-0.00007611,0.00006725,0.02106676,-0.00631715,-0.02246443,
 0.00251264,-0.04312859,-0.00522011,-0.01456524,0.00050070,0.01884506,-
 0.01298823,0.05169857,0.00017177,0.00008990,0.00004821,-0.00003559,0.0
 0000010,0.00004583,-0.00002532,-0.00005852,0.00015013,-0.00002412,0.00
 000533,0.00000486,-0.00000586,-0.00004861,-0.00004635,-0.00002205,0.00
 001252,-0.00017192,0.00001326,0.00002142,-0.00001499,0.00000453,-0.000
 00064,0.00001025,-0.00000288,0.00000288,0.00000172,-0.00000313,0.00000
 202,-0.00000039,-0.00000124,-0.00000211,-0.00000698,-0.00000619,-0.000
 00733,-0.00000839,0.00000146,0.00000282,-0.00000553,0.00000075,0.00000
 697,-0.00000820,-0.00000045,-0.00000128,0.00002262,0.00000184,-0.00000
 572,-0.00000052,-0.00000107,0.00001595,-0.00001017,-0.00000778,0.00000
 957,-0.00001245,-0.00000479,0.00000592,-0.00000740,-0.00000470,0.00000
 120,-0.00000706,-0.00005637,0.00002732,-0.00005563,0.00022345,-0.00021
 010,-0.00005181,-0.00005910,0.00004156,0.00001868,-0.00016466,0.000072
 57,0.00011198,-0.00002509,0.00001205,0.00000800,-0.00001263,0.00001368
 ,0.00000289,-0.00000873,0.00000187,0.00001199,0.00000021,0.00000857,0.
 00000212,-0.00071409,0.00011589,0.00097521,-0.00038289,0.00033796,0.00
 010399,-0.00006335,0.00012484,0.00017992,0.00005691,0.00049775,-0.0000
 1300,-0.00015927,-0.00002885,0.00004332,0.00000855,-0.00013135,0.00031
 706,-0.00006319,0.00002774,0.00004738,-0.00028109,0.00000687,0.0002235
 4,0.00344126,-0.00320031,-0.00049400,0.11835388,-0.01050886,-0.2039794
 7,0.00194568,0.00127875,-0.00122053,-0.13612052,0.01162005,0.23006938,
 0.00058567,0.00021149,-0.00019885,-0.00009947,0.00012582,-0.00007529,0
 .00002589,0.00006155,0.00018968,0.00000083,-0.00001841,0.00000519,0.00
 001282,-0.00000498,-0.00001474,-0.00008978,-0.00013293,-0.00002565,-0.
 00002420,0.00004562,-0.00001959,0.00003614,0.00001059,0.00001665,-0.00
 000608,-0.00000153,-0.00000136,-0.00000021,-0.00000015,-0.00000854,-0.
 00002670,0.00000137,-0.00000394,-0.00000472,-0.00000079,0.00000311,0.0
 0001176,0.00002009,-0.00000062,0.00000744,-0.00000242,-0.00001076,0.00
 000161,0.00000921,0.00001222,-0.00001528,-0.00001503,0.00000457,-0.000
 00014,0.00000709,-0.00002436,-0.00003978,-0.00000512,-0.00000635,-0.00
 000087,0.00000290,-0.00000424,-0.00000463,0.00001588,0.00000281,-0.000
 06869,-0.00006656,0.00029813,0.00025646,0.00052517,-0.00044150,-0.0001
 3596,-0.00017822,0.00011694,-0.00018176,-0.00032473,0.00019231,-0.0000
 4537,-0.00004175,0.00005610,-0.00003168,0.00001742,-0.00000434,-0.0000
 0028,-0.00002541,-0.00001433,-0.00000317,0.00000577,0.00001010,-0.0018
 2663,-0.00161068,-0.00013368,-0.00093482,0.00096227,0.00047032,0.00001
 262,-0.00006418,0.00017299,0.00045748,0.00080293,-0.00021511,-0.000069
 79,-0.00030125,0.00017182,0.00049412,-0.00025067,-0.00125967,0.0001632
 7,-0.00002282,0.00011598,-0.00024551,0.00002747,-0.00003762,-0.0128418
 8,0.01348627,-0.01437829,-0.11446470,-0.00311432,-0.10758581,-0.013967
 85,-0.00465511,-0.01975249,0.00971801,-0.00001966,0.01403257,0.1333458
 2,-0.00025043,0.00007250,0.00022021,-0.00008103,-0.00028849,0.00023498
 ,0.00035305,-0.00000685,-0.00030987,-0.00002511,0.00000914,-0.00001512
 ,0.00001693,0.00001539,0.00002082,-0.00023409,0.00012842,0.00000611,0.
 00002432,0.00000552,0.00000925,-0.00002204,0.00000227,-0.00000949,0.00
 000528,0.00000297,0.00000477,-0.00000292,0.00000059,0.00000236,0.00000
 210,-0.00000359,-0.00000115,-0.00000306,0.00000286,0.00000047,-0.00000
 445,-0.00001375,0.00000749,-0.00000388,-0.00000291,0.00000642,0.000011
 50,-0.00000353,-0.00001818,0.00000097,0.00000480,-0.00000821,0.0000001
 7,0.00000580,0.00001148,0.00000488,0.00001223,-0.00000285,-0.00000952,
 -0.00000026,0.00000852,0.00000177,-0.00000160,0.00000096,-0.00012915,0
 .00015424,-0.00041347,0.00033612,-0.00099477,0.00045835,0.00000464,0.0
 0024258,-0.00009204,-0.00027933,0.00087775,-0.00010256,-0.00004694,0.0
 0012377,-0.00000645,0.00000179,-0.00000392,0.00001131,-0.00002411,0.00
 003346,0.00003175,-0.00000235,-0.00001856,-0.00002705,0.00364529,0.000
 37194,0.00021279,0.00018857,-0.00127822,-0.00057173,0.00011159,0.00012
 512,-0.00013735,-0.00056452,-0.00095261,0.00015670,0.00003445,-0.00025
 624,-0.00018539,0.00015451,0.00072201,0.00182044,-0.00019636,-0.000037
 71,-0.00012385,-0.00016212,0.00021009,0.00027455,0.02161676,-0.0117645
 2,0.02417555,-0.00379495,-0.03893509,-0.00302952,-0.01439440,-0.001056
 76,-0.01939254,-0.00080176,0.00136871,-0.00016039,-0.00548218,0.051127
 22,0.00019220,0.00001388,-0.00006605,-0.00006596,0.00015643,-0.0001601
 3,-0.00007762,-0.00002224,0.00021580,0.00001944,-0.00002395,0.00000072
 ,0.00000508,0.00004104,0.00002600,0.00007048,-0.00008646,-0.00007895,-
 0.00001334,-0.00001194,0.00002238,0.00000443,0.00000121,0.00000329,0.0
 0000423,0.00000157,0.00000525,0.00000498,-0.00000509,-0.00000686,-0.00
 000408,-0.00000455,-0.00000602,0.00000585,0.00000464,0.00000363,0.0000
 0409,0.00000667,0.00000717,0.00000553,-0.00000792,-0.00000173,-0.00000
 669,-0.00000105,-0.00001051,0.00000406,-0.00000910,-0.00000034,0.00000
 133,-0.00000501,-0.00000308,-0.00000544,-0.00001013,-0.00000380,0.0000
 0601,-0.00000059,0.00000426,0.00000574,0.00000039,0.00000854,0.0000037
 2,-0.00001424,0.00009369,-0.00014155,0.00023899,0.00010434,0.00001243,
 -0.00006111,-0.00003249,0.00010632,-0.00009740,-0.00018408,0.00002459,
 -0.00001813,-0.00002471,-0.00000005,-0.00000041,-0.00000676,0.00000207
 ,-0.00000479,-0.00001429,-0.00000309,-0.00001412,-0.00000699,-0.000813
 59,-0.00009131,0.00022360,0.00017440,-0.00010669,0.00025228,-0.0001330
 4,-0.00019017,-0.00001546,0.00004251,0.00037002,-0.00023867,-0.0000359
 7,-0.00019172,0.00010894,0.00091749,-0.00080448,-0.00003096,0.00001266
 ,-0.00007233,-0.00001198,0.00002133,-0.00007991,-0.00004669,-0.0055078
 6,0.00827322,0.00005808,-0.10837602,-0.00104505,-0.20684207,-0.0022064
 3,-0.00172105,-0.00135496,-0.01260582,-0.00133906,-0.02628429,0.128345
 61,-0.00306807,0.23429390\\-0.01542055,-0.00358566,-0.00061429,0.01029
 159,0.00165573,-0.00896100,-0.02375588,0.00911325,0.01285660,-0.000099
 08,0.00053172,0.00005068,0.00023407,-0.00116951,-0.00009604,0.02074900
 ,-0.01006599,-0.00389686,-0.00147345,0.00014600,-0.00054035,-0.0014737
 4,0.00004905,-0.00003151,-0.00050711,0.00067801,-0.00044964,0.00011293
 ,-0.00011931,0.00009627,0.00050816,-0.00047369,0.00022128,0.00017603,-
 0.00010572,0.00007661,-0.00104012,-0.00031128,-0.00045658,0.00019378,0
 .00002447,0.00016240,0.00024685,0.00021238,-0.00001780,0.00065344,0.00
 024484,0.00020195,0.00036751,0.00006474,-0.00060870,0.00057141,-0.0004
 3726,-0.00007578,0.00011102,0.00004852,-0.00001448,0.00068004,0.000476
 20,0.00016269,0.00391188,-0.00034936,-0.00426405,-0.01953333,0.0000455
 0,0.01009100,0.01280749,0.00279208,-0.00279099,0.00480869,-0.00043836,
 -0.00228604,0.00103050,-0.00070619,-0.00095292,-0.00042675,-0.00037887
 ,-0.00031018,0.00020471,0.00067316,-0.00040677,0.00052251,-0.00040319,
 0.00055440,-0.00459579,-0.00439929,0.00732254,0.00422795,-0.01003682,0
 .00423160,-0.00051084,-0.00085440,-0.00058400,-0.00054779,0.00186362,-
 0.00161825,0.00736074,0.01236038,-0.00141678,-0.00015903,-0.00132680,-
 0.00030566,-0.00043648,0.00029316,-0.00017317,-0.00030511,-0.00039516,
 0.00028114,0.00024632,0.00683300,-0.00500437,0.00069415,-0.00300572,-0
 .00040735,-0.00048665,0.00028095,0.00001933,0.00030172,-0.00017097,-0.
 00037850,-0.00024080,0.00034680,0.00033358\\\@
 The archive entry for this job was punched.


          EVOLUTION
 IN THE BEGINNING GOD MADE MAN.
 HE WORKED THE DIRT WITH HIS HANDS.
 THEN GOD DECIDED TO GIVE MAN SCIENCE,
 MAN SHOULD BE USEFUL (LIKE AN APPLIANCE.)
 BUT SOON MAN'S KNOWLEDGE GREW TOO GREAT,
 TO THE HEADING SCIENCE HE COULDN'T RELATE
 SO GOD SAID "LETS HAVE DIFFERENT FIELDS,
 WE'LL DIVIDE THEM UP, SEE WHAT IT YIELDS."
 ENTER PHYSICS, CHEMISTRY, BIO
 THEY SPRANG UP AROUND THE NILE.
 BUT CHEMISTRY SURPASSED THE REST
 FAR AND AWAY IT WAS THE BEST.
 EXPERIMENT WAS GOD'S DECREE
 EXPERIMENT DID CHEMISTS WITH LOTS OF GLEE
 BUT SOON THEIR TESTS BEGAN TO BOG,
 THEY FOUND THEMSELVES DEEP IN A FOG.
 "GIVE US SOME HELP" THEY CRIED TO GOD.
 GOD LOOKED AROUND, THEN GAVE THE NOD.
 ENTER EINSTEIN, HEISENBERG, BOHR,
 REACTION PATHS WERE CLEAR ONCE MORE.
 WITH THEORISTS GOD SEND DIRECTION
 AND THEN HE STOPPED, HE'D MADE PERFECTION.
          -- THOMAS A. HOLME, 1981
 Job cpu time:       0 days  0 hours  0 minutes  0.6 seconds.
 Elapsed time:       0 days  0 hours  1 minutes 15.9 seconds.
 File lengths (MBytes):  RWF=      6 Int=      0 D2E=      0 Chk=      2 Scr=      1
 Normal termination of Gaussian 16 at Sun Nov 26 14:55:58 2023.
