41
 energy: -67.467388126881 gnorm: 0.000181046875 xtb: 6.3.2 (452493c)
C         0.90363493174894    0.39455836772264    1.52712102408412
C         1.99660701805459   -0.39345486464031    1.28037148726607
C         2.62158597102942   -0.45610376348850    0.00039344915096
C         0.44025267996021    1.43539817977268    0.54317468850333
H         2.36336813188303   -1.05238361212589    2.05329519503734
O         3.43089950457981   -1.33522612445376   -0.31458430756013
C         2.32072323487254    0.69886212734224   -0.93921732166952
C         0.86015645914331    1.15772282750555   -0.90878881336887
C         0.71844193693879    2.45413714013341   -1.71410784364981
H         0.99573417881162    2.28381785748649   -2.75144942123712
H        -0.31027075458215    2.80413780057481   -1.68534586142455
H         1.36097564582932    3.23399978264227   -1.31182608699587
C        -0.02847870254920    0.08634790883671   -1.54042285558921
H         0.29003478441201   -0.11458441246372   -2.56080405332633
H         0.02790179906184   -0.83235692626937   -0.96795201136314
H        -1.06414844751069    0.41440491108997   -1.55428686806994
H         2.61599416181010    0.41413448109153   -1.95102579414707
H        -0.64417260145937    1.51389147111971    0.61462081739227
H         0.87377096802888    2.38324124917997    0.87676505046152
H         2.97086338753223    1.52070835277411   -0.62324718732322
O         0.56324335351254    0.72894973495562    2.82219240967920
S         1.27589577324786    0.05519147746895    4.10181470672072
O         2.63044248591119    0.52137270850579    4.20337649748434
O         1.09205616813910   -1.36934478677057    4.10164229513030
C         0.24799324980351    0.82031517259585    5.34908667091304
H        -0.77951930754595    0.58854178819353    5.10463279497539
H         0.43622597460469    1.88440093764930    5.30740683629951
H         0.52799731151479    0.40818461510175    6.31043595674977
C         0.39477074431296   -2.88146519138057    1.32762800511096
N        -0.50678768272889   -2.00285155562781    1.76564906984844
H         1.09497768980842   -2.71508237885712    0.53570635488616
C        -1.20353316085350   -2.58014833050163    2.78974918574663
O        -0.68507616414625   -0.80326395805837    1.31739859712505
C        -0.69497208858690   -3.83050499700657    2.96612704775162
H        -1.99154891017017   -2.06226452830042    3.29338008882796
H        -0.96717072231984   -4.59240900722309    3.66657391293352
N         0.29883150375077   -4.00375476025641    2.05875254436090
C         1.12643722079264   -5.17345529190544    1.92721879657659
H         0.50390325013350   -6.05529002717359    1.76997393494142
H         1.79635193645188   -5.04517712676647    1.07968070825334
H         1.72081708675202   -5.31225624850260    2.83170529949497
41
 energy: -67.467518996981 gnorm: 0.000170055320 xtb: 6.3.2 (452493c)
C         0.90719813124503    0.39841246467143    1.52742333094754
C         1.99760903838256   -0.39142103411000    1.28057111862745
C         2.62195474570700   -0.45529432198683   -0.00042631012793
C         0.44143366394625    1.43717339754293    0.54291955155625
H         2.36445905851614   -1.05052342541889    2.05326639829194
O         3.42934163041634   -1.33575912188985   -0.31516082188251
C         2.32153980889118    0.69950678712447   -0.93990170164927
C         0.86111105587379    1.15901825835648   -0.90902184857151
C         0.71937910255488    2.45497733986708   -1.71501994489265
H         0.99639075652211    2.28409886286456   -2.75233106340857
H        -0.30931361549534    2.80500457932849   -1.68618774477053
H         1.36202965920301    3.23501319312711   -1.31330229591688
C        -0.02798496267249    0.08732944178153   -1.53939910682493
H         0.29049945715277   -0.11527432352195   -2.55944910829483
H         0.02758199788834   -0.83049437709331   -0.96540844905022
H        -1.06345062188135    0.41599445504461   -1.55381529322572
H         2.61599315754461    0.41432264740747   -1.95179714580285
H        -0.64312951588331    1.51334022847355    0.61483749119597
H         0.87284180579622    2.38643149279394    0.87535141774800
H         2.97222779883263    1.52109876363095   -0.62454253336491
O         0.56272459396165    0.72941111304955    2.82169624287594
S         1.27569859353690    0.05521682559225    4.10129670831923
O         2.63024278682314    0.52159146158880    4.20164614962108
O         1.09217701035708   -1.36924590791956    4.10124093749628
C         0.24838144770746    0.82064408580979    5.34883268978494
H        -0.77926589070693    0.58960853143446    5.10425580420917
H         0.43736045280502    1.88457387165334    5.30708323215958
H         0.52802028312726    0.40831618083455    6.31017666449123
C         0.39243047359613   -2.88281982908551    1.32812521829689
N        -0.50983306228790   -2.00508368182554    1.76647108697810
H         1.09240492570831   -2.71548056069905    0.53623097200926
C        -1.20579551877946   -2.58351993834808    2.79047400313884
O        -0.68951856548968   -0.80613818158488    1.31855414587289
C        -0.69557735724216   -3.83326178864860    2.96689142729554
H        -1.99429923059775   -2.06661429918617    3.29434382862140
H        -0.96647949902725   -4.59540840503353    3.66754207936721
N         0.29813458437654   -4.00538384848717    2.05933592972062
C         1.12698221402215   -5.17417733065498    1.92760276410900
H         0.50556530053522   -6.05646892095809    1.76858828774355
H         1.79788151662378   -5.04439615866813    1.08111352757819
H         1.72026278838973   -5.31337752688656    2.83270735970789
41
 energy: -67.467646885896 gnorm: 0.000165381205 xtb: 6.3.2 (452493c)
C         0.90846722199631    0.40067330980974    1.52782648944705
C         1.99663920376149   -0.39060574229374    1.28091878047782
C         2.61700055882589   -0.45842240029088   -0.00259429190986
C         0.43888919195974    1.43698243641405    0.54291052836733
H         2.36385941442043   -1.04943931646641    2.05365257757826
O         3.41793512111900   -1.34345837388909   -0.31958496769313
C         2.31928156882565    0.69794606240356   -0.94050876028098
C         0.85988449479439    1.16107962630660   -0.90921370413012
C         0.72240004435352    2.45919323056744   -1.71251404019177
H         0.99530137218605    2.28868547127303   -2.75095895579974
H        -0.30442999407122    2.81435102018747   -1.67988802501131
H         1.37014714714851    3.23527948679658   -1.31133685160493
C        -0.03199629009464    0.09335379812813   -1.54254227622647
H         0.29711039247840   -0.12095186321420   -2.55679656847768
H         0.00641568454071   -0.81997955429502   -0.96011570867157
H        -1.06369665131573    0.43274438575627   -1.57315493399683
H         2.61299849428233    0.41347132952870   -1.95280587113774
H        -0.64607949888993    1.50805789854874    0.61407756672366
H         0.86553870059838    2.38819556693422    0.87594895220806
H         2.97178757380957    1.51757724456920   -0.62388878362620
O         0.56065823295747    0.72864102699256    2.82135925687559
S         1.27545105219093    0.05535933354488    4.10083437304012
O         2.63165594294539    0.51797464139245    4.19627985331363
O         1.08797409674431   -1.36854412002777    4.10399853469916
C         0.25414510004299    0.82730909270612    5.34925198741222
H        -0.77534447895520    0.60620642297652    5.10325431202091
H         0.45303549755478    1.88954949446362    5.30978740725991
H         0.52917704909639    0.41057865394437    6.31003334956804
C         0.39506719423777   -2.88701929781988    1.32999625936727
N        -0.51114583054125   -2.01120589712646    1.76391426744272
H         1.09707986613377   -2.71880016857442    0.54011213032833
C        -1.20944622422808   -2.59065499417178    2.78582750161060
O        -0.69267377333293   -0.81383304270972    1.31403227389782
C        -0.69654521003516   -3.83889254832652    2.96553208377507
H        -2.00142072467366   -2.07551047631921    3.28606434946507
H        -0.96803668456117   -4.60096860004700    3.66601437986608
N         0.30116034434771   -4.00916484255674    2.06212639560942
C         1.13293975517688   -5.17615239764741    1.93330779537888
H         0.51581279575507   -6.05672900529352    1.74932525741461
H         1.82175763408014   -5.03516313989854    1.10316864036533
H         1.70645461431475   -5.32677275230514    2.84916343522616
41
 energy: -67.467773392570 gnorm: 0.000088804268 xtb: 6.3.2 (452493c)
C         0.91243658487631    0.40477795547278    1.52742516337715
C         1.99679863139339   -0.38986096549427    1.27930891985088
C         2.61548129526907   -0.45942716427585   -0.00574082738267
C         0.44065983211449    1.43922024770798    0.54190429546273
H         2.36349456998780   -1.04960332981019    2.05146596638510
O         3.41190856772657   -1.34745484495222   -0.32429636541067
C         2.32067944457839    0.69935180865452   -0.94111081794103
C         0.86120404550201    1.16245647841640   -0.91016998312664
C         0.72415347007833    2.45963410045389   -1.71500187423479
H         0.99802505659870    2.28794779382400   -2.75300751214710
H        -0.30265536146812    2.81492040168679   -1.68376794880495
H         1.37164386377376    3.23612647399600   -1.31417308802533
C        -0.03091079506196    0.09372798707971   -1.54133765117138
H         0.29702945433700   -0.12191201550647   -2.55567943913516
H         0.00840159522998   -0.81873840339062   -0.95749971008053
H        -1.06279832496094    0.43264878513896   -1.57109711836069
H         2.61577516762624    0.41771830883054   -1.95376700727301
H        -0.64435782903459    1.50891162650811    0.61388688243175
H         0.86601814660875    2.39151984038519    0.87367982914732
H         2.97258674614319    1.51804985850822   -0.62091071500367
O         0.56364288464364    0.73209565759728    2.82026786548868
S         1.27623603051337    0.05693601549937    4.09991180354329
O         2.63209241688574    0.52021305794217    4.19734369659181
O         1.08957524576588   -1.36700513189284    4.10093222228240
C         0.25223391278610    0.82637807133818    5.34755934334525
H        -0.77652621436127    0.60516320246849    5.09854569683089
H         0.45055571185337    1.88880783612043    5.31064367270066
H         0.52512445711524    0.40775775813739    6.30811552273773
C         0.39168443094444   -2.88687867815606    1.33289107297325
N        -0.51445780138376   -2.01237169418015    1.76950413092583
H         1.09274311235412   -2.71666019604032    0.54264418277889
C        -1.21073480605407   -2.59448291987377    2.79144428565134
O        -0.69825312384691   -0.81508256445849    1.32124122904594
C        -0.69622059647218   -3.84251816271465    2.96858988422538
H        -2.00189767042756   -2.08100391210341    3.29466574829818
H        -0.96635296030461   -4.60629612885490    3.66776648210466
N         0.30025422456290   -4.01038600871058    2.06353681962792
C         1.13338654184548   -5.17610285251281    1.93187943623271
H         0.51781304233282   -6.05638800757437    1.74125569261987
H         1.82505465302553   -5.03045942053337    1.10492448637491
H         1.70368234688312   -5.33078986476027    2.84904072704388
41
 energy: -67.467898011070 gnorm: 0.000118854410 xtb: 6.3.2 (452493c)
C         0.91645703523162    0.40924658412399    1.52823290225808
C         1.99832337986254   -0.38728194262935    1.28002572637083
C         2.61516757832866   -0.45915970570013   -0.00657791837283
C         0.44189839941269    1.44127114168912    0.54196782032035
H         2.36518318335127   -1.04693461469856    2.05215468270206
O         3.40836237749036   -1.34942470602191   -0.32558558294338
C         2.32121073935062    0.69968757602736   -0.94175750827316
C         0.86188171095239    1.16347390029368   -0.91012187053612
C         0.72469581160682    2.45998800491555   -1.71591249300671
H         0.99765091841187    2.28728727541013   -2.75398377666590
H        -0.30202131140170    2.81548477663415   -1.68418154543816
H         1.37265396607132    3.23668735684324   -1.31626966418361
C        -0.03082490349973    0.09442715031348   -1.53991331380194
H         0.29743253971305   -0.12351467856668   -2.55365103564933
H         0.00715719405762   -0.81684350513473   -0.95414593469140
H        -1.06238706341742    0.43421743878239   -1.57086302520804
H         2.61546110774832    0.41759346958017   -1.95452854580358
H        -0.64324861009054    1.50823830802704    0.61457620563839
H         0.86494144315325    2.39513106749273    0.87230303828511
H         2.97375565630870    1.51803495255737   -0.62203610027447
O         0.56395446466853    0.73331272995430    2.82029243905935
S         1.27599407773327    0.05749091015918    4.10033059249855
O         2.63186486901599    0.52072967000754    4.19785967108204
O         1.08940732891851   -1.36639442604868    4.10077822410202
C         0.25184117038558    0.82664879405272    5.34798429417302
H        -0.77690552193810    0.60589874669871    5.09848116265628
H         0.45057183188120    1.88903818316461    5.31181286397435
H         0.52422613198379    0.40735197985533    6.30840677977634
C         0.39062627858890   -2.88852464927952    1.33244067751822
N        -0.51599289211589   -2.01438165430471    1.76868584518627
H         1.09120257644788   -2.71850134427685    0.54171974007912
C        -1.21152396345449   -2.59654812943475    2.79114693731824
O        -0.70099290335460   -0.81798134513295    1.32001251259942
C        -0.69593900859882   -3.84405338442328    2.96908710682815
H        -2.00294557648948   -2.08318595974081    3.29409383901750
H        -0.96496558507086   -4.60725462272745    3.66927664740089
N         0.30021798152505   -4.01183581317369    2.06380305919848
C         1.13357883556639   -5.17730719672757    1.93191238176686
H         0.51830268168268   -6.05743084518008    1.73946594586810
H         1.82618555074692   -5.03068093089004    1.10591403548537
H         1.70275051921559   -5.33305956252024    2.84957818366602
41
 energy: -67.468021653830 gnorm: 0.000156688098 xtb: 6.3.2 (452493c)
C         0.92196933882557    0.41456979093393    1.52872893792721
C         2.00044224381371   -0.38473244016594    1.27955160571251
C         2.61257194975616   -0.46103569780855   -0.00981215612488
C         0.44308890776255    1.44329561029814    0.54136239743735
H         2.36760047229324   -1.04422987194454    2.05164773531282
O         3.39861155637374   -1.35622519364990   -0.33141710637524
C         2.32125987220273    0.69970514354063   -0.94297514433072
C         0.86227574444496    1.16487171323503   -0.91089025527384
C         0.72654287055815    2.46107033806120   -1.71744077301317
H         0.99656668595615    2.28671613485632   -2.75600095606506
H        -0.29912530480129    2.81938783318846   -1.68361383822935
H         1.37754651826177    3.23636825572184   -1.32001181775873
C        -0.03222319506050    0.09634302929016   -1.53901047981132
H         0.30098371342042   -0.13074573752682   -2.54910408152529
H        -0.00310959960625   -0.81072894347753   -0.94621448024611
H        -1.06167217542468    0.44169218409491   -1.57890699899807
H         2.61577878365326    0.41965511375654   -1.95620101654016
H        -0.64222324603820    1.50671475885965    0.61510194615355
H         0.86302328341371    2.39918231180853    0.86989636355963
H         2.97410824204125    1.51677355139034   -0.62068704539174
O         0.56884909599328    0.73883867044259    2.81993178263002
S         1.27682637325627    0.06001515319765    4.10070895678486
O         2.63296219852565    0.52185954102123    4.20162900676926
O         1.08913357815712   -1.36364332855801    4.09858091125726
C         0.25031968066357    0.82845716440522    5.34676798556998
H        -0.77793819263311    0.60985205289380    5.09333311210011
H         0.45085557723351    1.89059330929096    5.31330632216871
H         0.51883730053390    0.40676645482748    6.30722226161246
C         0.39094431504599   -2.88926309031997    1.33623849992319
N        -0.51666213989076   -2.01671601096615    1.77356682232540
H         1.09267056383747   -2.71684381887086    0.54708633975722
C        -1.21293850681710   -2.60219657202620    2.79371717454578
O        -0.70328329314204   -0.82011957525243    1.32716928444241
C        -0.69656626800210   -3.84979492849562    2.96931363358397
H        -2.00505968912936   -2.09072710054966    3.29747602294185
H        -0.96627755080677   -4.61515951862074    3.66689507664265
N         0.30074239663492   -4.01457091145501    2.06489214115368
C         1.13510893526721   -5.17910617123738    1.93085568246602
H         0.52116985933847   -6.05859292308732    1.73119555364128
H         1.83128744951651   -5.02806379461757    1.10866498254469
H         1.70021165455069   -5.33929148651358    2.85026061070059
41
 energy: -67.468144389789 gnorm: 0.000134605632 xtb: 6.3.2 (452493c)
C         0.92561394458387    0.41844776178900    1.52944548193441
C         2.00168723090105   -0.38267791351372    1.28019246927221
C         2.61291332285049   -0.46046723769011   -0.01019422624504
C         0.44434834449319    1.44498179376646    0.54145650446060
H         2.36897257856219   -1.04210164766872    2.05228756405409
O         3.39717611046351   -1.35687180549879   -0.33158182026971
C         2.32187191396505    0.69988800639449   -0.94360647771058
C         0.86301265688907    1.16564698417455   -0.91082540093390
C         0.72700067798505    2.46138437305966   -1.71802473821008
H         0.99639021273774    2.28644368781888   -2.75664316896013
H        -0.29870466257040    2.81956408864216   -1.68380381627156
H         1.37812086588809    3.23697325990433   -1.32137921041878
C        -0.03201602119197    0.09698454843871   -1.53797737512758
H         0.30101034108123   -0.13127476622817   -2.54786337005359
H        -0.00355245480279   -0.80944907698265   -0.94419663984929
H        -1.06127743774388    0.44283783199264   -1.57818059509050
H         2.61540557748951    0.41894705462678   -1.95687123065759
H        -0.64105334369172    1.50621351570766    0.61574917222477
H         0.86243368105030    2.40214795740017    0.86869775342007
H         2.97537243788355    1.51682950464894   -0.62237559719127
O         0.56885115548105    0.73937316077787    2.81991417852604
S         1.27657563481240    0.06011997324886    4.10100305026328
O         2.63279870495608    0.52179646019827    4.20163641303729
O         1.08883577083770   -1.36347691495245    4.09864193420747
C         0.25023830401000    0.82865703864609    5.34707759147235
H        -0.77805446193940    0.61040524823468    5.09346286159487
H         0.45114880591744    1.89074014990635    5.31388624235745
H         0.51846746896530    0.40668692731996    6.30750601400085
C         0.38925141890521   -2.89071805364810    1.33566706757595
N        -0.51897237614658   -2.01865339854453    1.77261483383750
H         1.09037485639467   -2.71832326843995    0.54597231638707
C        -1.21423573148710   -2.60415583499085    2.79348847955164
O        -0.70675905314348   -0.82308933035100    1.32555015214528
C        -0.69647998036814   -3.85108910690048    2.96998327924964
H        -2.00675877073887   -2.09297284186493    3.29690185617943
H        -0.96472984494811   -4.61587033687344    3.66874027961925
N         0.30046589456125   -4.01571227859919    2.06524236608940
C         1.13542339682036   -5.17974486614347    1.93100725729012
H         0.52197630997585   -6.05948080528072    1.73090195014451
H         1.83156174685333   -5.02801987399622    1.10891245844577
H         1.70050477343766   -5.33997896855815    2.85039913962908
41
 energy: -67.468266536779 gnorm: 0.000127741332 xtb: 6.3.2 (452493c)
C         0.93243366821229    0.42601416133715    1.53216974704355
C         2.00432180291772   -0.37936545969041    1.28288863466084
C         2.61072983520256   -0.46461284520715   -0.01004540385840
C         0.44723986646904    1.44761880557100    0.54128001089461
H         2.37271471332630   -1.03641679282994    2.05647969826901
O         3.38974010233632   -1.36539705634723   -0.33077668170776
C         2.32068973928763    0.69339351329077   -0.94618095256818
C         0.86345703816860    1.16433651296608   -0.91101990395467
C         0.73127052805155    2.45887611104005   -1.72080145130930
H         0.99456164857929    2.27971799672595   -2.76025930050595
H        -0.29200865093162    2.82351834469741   -1.68250565390241
H         1.38902192490900    3.23143682812187   -1.32917750963276
C        -0.03721639272202    0.09745944156105   -1.53329983027735
H         0.30243066880470   -0.14788887988997   -2.53692142889940
H        -0.02454491919698   -0.80102509446663   -0.92701874050743
H        -1.06215660292941    0.45413406354785   -1.58792662047472
H         2.61023504936514    0.40823675573597   -1.95942914190192
H        -0.63824427197523    1.50590486151814    0.61720584744300
H         0.86279084877009    2.40715189572684    0.86479794729600
H         2.97792768178470    1.50914362738526   -0.62962176564771
O         0.57668351432845    0.75056586564098    2.82129750350103
S         1.27497496183363    0.06528526227977    4.10458591639331
O         2.63239272851910    0.52186774745226    4.21267818640521
O         1.08261301997685   -1.35755830291030    4.09825122984464
C         0.24468005593671    0.83489987364313    5.34665719801494
H        -0.78298471408845    0.62558670459120    5.08306674504856
H         0.45357355309428    1.89564534361818    5.32082880521823
H         0.50165912785272    0.40573313207673    6.30696256378810
C         0.38884360963951   -2.88809006037803    1.33832224637235
N        -0.51949014668150   -2.01931331189822    1.78134660543502
H         1.08861758447900   -2.71052961162893    0.54863981446516
C        -1.21295596770444   -2.61165332973414    2.79954888846610
O        -0.70924593100698   -0.82187699486396    1.34087684455765
C        -0.69349450708826   -3.85902549981471    2.96850782327292
H        -2.00525772253183   -2.10476404436487    3.30762858870106
H        -0.96027082551360   -4.62804692765576    3.66317509353545
N         0.30252566852497   -4.01737753510546    2.06175739204555
C         1.13937605297042   -5.17907600513284    1.91950176060297
H         0.52815290682716   -6.05755450959498    1.70725562228235
H         1.83911874915460   -5.01784835500944    1.10227056092478
H         1.70030400302831   -5.34816523203406    2.83981811064682
41
 energy: -67.468388469433 gnorm: 0.000182998266 xtb: 6.3.2 (452493c)
C         0.93563400610008    0.43007471753751    1.53283424669839
C         2.00498581866685   -0.37731052265933    1.28359218982083
C         2.60880271997975   -0.46515707784143   -0.01104556082508
C         0.44854073828886    1.45005772268135    0.54154823969315
H         2.37249517417063   -1.03512132876938    2.05689412833801
O         3.38257116354798   -1.36949435959185   -0.33328769722797
C         2.32120370744690    0.69443072319332   -0.94561265401640
C         0.86398149493838    1.16576129507308   -0.91078642065970
C         0.73195109825799    2.45941756483331   -1.72194325646549
H         0.99523647787204    2.27892978601875   -2.76117316744132
H        -0.29135204233151    2.82402876186465   -1.68418884233963
H         1.38967589287479    3.23245478355293   -1.33127403930279
C        -0.03712028358402    0.09868780101441   -1.53200740947791
H         0.30136006797462   -0.14652513602545   -2.53605068799625
H        -0.02373209279857   -0.79977060897132   -0.92571332021941
H        -1.06221174281961    0.45514202003842   -1.58533124975932
H         2.61156159615474    0.41083389159356   -1.95902561926990
H        -0.63692356586886    1.50746573658851    0.61842007024665
H         0.86339195153356    2.41042548397076    0.86368902429245
H         2.97811316694959    1.50950236691891   -0.62669995056198
O         0.57606374960576    0.75159334172749    2.82111496410530
S         1.27498628354481    0.06676898427858    4.10465471138508
O         2.63218808996452    0.52429467744593    4.21169424440323
O         1.08359404868824   -1.35614747709398    4.09847984290215
C         0.24493675800831    0.83615790250430    5.34701183615306
H        -0.78273967829792    0.62701781280000    5.08331941318543
H         0.45398704633543    1.89689610022659    5.32155990641967
H         0.50183898338293    0.40667134412355    6.30720959272969
C         0.38838461370133   -2.89067422346251    1.33779506669614
N        -0.52082401366044   -2.02214910239715    1.77979150459231
H         1.08846401748744   -2.71338974869160    0.54830046719333
C        -1.21389024264756   -2.61442278551800    2.79830323407462
O        -0.71223575509738   -0.82577142447859    1.33836367781713
C        -0.69338731222361   -3.86122054766116    2.96861223740539
H        -2.00658306629166   -2.10759862971868    3.30580697832705
H        -0.95961636560967   -4.62980663505246    3.66396895314776
N         0.30282077674636   -4.01964646766233    2.06218658975252
C         1.13986526938762   -5.18125152092808    1.92022981955307
H         0.52883913755379   -6.05985452997568    1.70784054068541
H         1.83970788337042   -5.01996752286089    1.10310578056870
H         1.70064442867742   -5.35039216865544    2.84062761535788
41
 energy: -67.468508128393 gnorm: 0.000174357856 xtb: 6.3.2 (452493c)
C         0.93879129813363    0.43426433564319    1.53330132495674
C         2.00571897078689   -0.37493784951930    1.28391844654983
C         2.60683822283090   -0.46549767087892   -0.01258338867915
C         0.44947953911919    1.45241834575216    0.54156982270897
H         2.37294943149610   -1.03323804953443    2.05693153449499
O         3.37489694583288   -1.37359925096809   -0.33654527023564
C         2.32160739716633    0.69538370491825   -0.94589126261184
C         0.86462728944106    1.16772181327013   -0.91082051763732
C         0.73323832643482    2.46108848035015   -1.72247945715914
H         0.99555960544158    2.27972794065644   -2.76180332711074
H        -0.28973161977799    2.82658101720814   -1.68422829109081
H         1.39193138828128    3.23378520053488   -1.33276919019106
C        -0.03733351923784    0.10083653467617   -1.53109148595087
H         0.30158781156395   -0.14693180964631   -2.53434305679191
H        -0.02596275349524   -0.79630515743448   -0.92279792487458
H        -1.06184960415273    0.45872525681631   -1.58595077432719
H         2.61191977287784    0.41260915101738   -1.95953500623450
H        -0.63607632089582    1.50749416350769    0.61894773596126
H         0.86236975507455    2.41392472779366    0.86290298378408
H         2.97898438957552    1.50952573897473   -0.62567337469411
O         0.57492820349004    0.75224767904370    2.82071812048725
S         1.27439947412521    0.06796985713512    4.10461537282689
O         2.63175192488775    0.52538671204941    4.21003760116101
O         1.08269574764220   -1.35486412159962    4.09928325587483
C         0.24546765345246    0.83831474211782    5.34729071513596
H        -0.78253903584284    0.63023588881755    5.08402104691112
H         0.45561611089871    1.89884961674085    5.32211079367119
H         0.50230849505295    0.40827498088830    6.30727616851996
C         0.38853655222908   -2.89364776807252    1.33786194095580
N        -0.52178997782402   -2.02578741312947    1.77869073303506
H         1.08884668157807   -2.71657879467045    0.54850939016802
C        -1.21500697973522   -2.61839338136777    2.79705502456552
O        -0.71476431725058   -0.83035314388199    1.33675292706373
C        -0.69349370550923   -3.86462595800332    2.96832438893961
H        -2.00856400615659   -2.11178109556161    3.30342087760256
H        -0.95924913494372   -4.63296056275651    3.66410232077900
N         0.30333419291936   -4.02260594055070    2.06261074160212
C         1.14086473698689   -5.18396433390810    1.92181174369661
H         0.53012530667537   -6.06280285227457    1.70951052387987
H         1.84119471197014   -5.02307852911936    1.10503391515865
H         1.70100103883741   -5.35247120506392    2.84271787707948
41
 energy: -67.468628145757 gnorm: 0.000055763450 xtb: 6.3.2 (452493c)
C         0.94319529397126    0.43812013104370    1.53317966691009
C         2.00678391202167   -0.37388845774291    1.28271918016116
C         2.60576617087031   -0.46636253508333   -0.01530589222219
C         0.45038148524970    1.45363137166764    0.54085900800688
H         2.37422411322414   -1.03221219812205    2.05559187424300
O         3.36985610624208   -1.37692772459327   -0.34058589422667
C         2.32224258471701    0.69591382601202   -0.94699861102361
C         0.86545547930840    1.16907311410587   -0.91160587196986
C         0.73502305886694    2.46265842775938   -1.72305437263819
H         0.99626245281676    2.28118276623114   -2.76261919883717
H        -0.28743494741041    2.82947320268094   -1.68385468237878
H         1.39502560752233    3.23441124060692   -1.33367493188361
C        -0.03745044635312    0.10263697755876   -1.53131934757036
H         0.30458136201277   -0.15043493825991   -2.53219025082533
H        -0.03165324997045   -0.79195821434378   -0.91911109387362
H        -1.06054038611654    0.46373552417009   -1.59189782153532
H         2.61277642654634    0.41468159947055   -1.96098831290042
H        -0.63532952136176    1.50516591447272    0.61886544034601
H         0.86003187071358    2.41687281702387    0.86118169531587
H         2.97982854150351    1.50914460314222   -0.62495736690381
O         0.57879051789227    0.75554362141449    2.81997002462124
S         1.27517857057918    0.06873166600547    4.10424931368979
O         2.63303678608790    0.52425500575641    4.21174576909198
O         1.08189791605972   -1.35381689817538    4.09723132998229
C         0.24511440994735    0.83966172072806    5.34548369231942