11
 energy: -19.479725967194 gnorm: 0.000921128013 xtb: 6.5.1 (b24c23e)
C            0.98238622566922       -1.35727069434523       -0.39833090712782
O            1.81796831966426       -2.25694472190802       -0.30171397499918
O            1.00279367241991       -0.32045240715944        0.00982092414411
H            1.79530303031186       -0.03531659153077        0.54374623262024
H            0.05380393301317       -1.60044661965302       -0.98080283220297
C           -3.03577991354272       -0.60973101098004       -1.76126355824421
O           -2.07324092833374       -0.15571748182460       -0.83928477558933
H           -2.36187464901721        0.79644090611405       -0.49540108409133
H           -3.09197773308030        0.04289073006951       -2.63710301372684
H           -4.02492668759216       -0.69149278006221       -1.30267134595543
H           -2.71546189450083       -1.60043461371585       -2.08218404482762
11
 energy: -19.506465078847 gnorm: 0.000575593035 xtb: 6.5.1 (b24c23e)
C            0.63045329882825       -1.18172474951551       -0.73179564618795
O            0.12098523001436       -2.26658552898462       -0.51778626345714
O            1.03094022031124       -0.37851437460214        0.07398011344198
H            0.90130015959684       -0.62803386198924        1.01989046361625
H            0.79124153765789       -0.85018472671432       -1.77866515051664
C           -2.64673449573029       -0.76467449527282       -1.47660208025544
O           -1.70771541897954        0.14746038470442       -0.96857490141571
H           -2.14207822458217        1.21067247506722       -1.05196928522263
H           -2.85553119895575       -0.58275944386961       -2.53452773898847
H           -3.57985099375773       -0.74234075944602       -0.90751497718556
H           -2.19401673940361       -1.75179020439035       -1.37162291383824
11
 energy: -19.495802970156 gnorm: 0.000472458192 xtb: 6.5.1 (b24c23e)
C            1.00773919758473       -1.24152773443361       -0.62825940291457
O            1.74515787268936       -2.08362562818920       -0.18385777206834
O            0.65901326709301       -0.14157567653281       -0.02610271430086
H            1.05102088985682       -0.05824422086338        0.86917274421805
H            0.54418466628494       -1.31314766147317       -1.62109269763705
C           -3.06727245951587       -0.61932191018159       -1.67473239591169
O           -2.12080521938101       -0.79825187866233       -0.66075584875976
H           -1.48561816094690        0.26681324859188       -0.49520868927013
H           -2.59827909985442       -0.38414042868408       -2.63524900651770
H           -3.79588349692753        0.15715336627065       -1.42391298382965
H           -3.59026408188110       -1.57260676084003       -1.76518961300700
11
 energy: -19.477913624212 gnorm: 0.000845268799 xtb: 6.5.1 (b24c23e)
C            1.13211612764325       -1.15025321387511       -0.71897589615673
O            2.17676107868555       -1.37441927488604       -0.19927953653964
O            0.17786043815912       -0.28223987692649       -0.17563156388420
H            0.45159431965002        0.07311588033024        0.69602503187276
H            0.76139099583811       -1.54911675402244       -1.66408906822482
C           -3.02881666409237       -0.52576329732905       -1.61368203831871
O           -2.47667563176756       -1.21954468960407       -0.54268193577354
H           -1.24491911391271       -0.71625398555229       -0.30578416030758
H           -2.43051509368330       -0.63395239641505       -2.52731399027273
H           -3.15105927566936        0.54206138659628       -1.39358259388660
H           -4.01874380585133       -0.95210906331300       -1.80019262850405
11
 energy: -19.464108722469 gnorm: 0.000680193542 xtb: 6.5.1 (b24c23e)
C            1.10528427509271       -1.12702813964815       -0.74509223717998
O            2.09787377708312       -1.46162463367445       -0.18817057205625
O            0.18012873977738       -0.24409183085578       -0.17521501853356
H            0.41161354699682        0.00234099461565        0.74902361704013
H            0.76946118147056       -1.41420735917038       -1.74219954343849
C           -3.02826072217319       -0.56333915100708       -1.59947305220886
O           -2.43120038176893       -1.17425773873990       -0.51354806144682
H           -1.11248231986084       -0.60014341837847       -0.31484492079789
H           -2.45162804576512       -0.70348875376941       -2.52632630040858
H           -3.17643630175878        0.51523875624862       -1.44080837545841
H           -4.01536037408209       -1.01787401061040       -1.74853391549996
11
 energy: -19.465251810234 gnorm: 0.000351672560 xtb: 6.5.1 (b24c23e)
C            1.10813553055072       -1.12892699582099       -0.74744638864128
O            2.09851522659154       -1.46328675685888       -0.18837547162043
O            0.17757128257521       -0.24008173647711       -0.17469672758563
H            0.40944753836404        0.00218846811989        0.74970475213987
H            0.77013551728367       -1.41322501793488       -1.74407688678491
C           -3.02630321542633       -0.56266497224152       -1.59916170341459
O           -2.42889951653567       -1.17269883741623       -0.51202214597461
H           -1.12224643886684       -0.60289206594758       -0.31588256822534
H           -2.45002505582526       -0.70448807922875       -2.52561830502662
H           -3.17437856344323        0.51583424951361       -1.44172080343783
H           -4.01295893025622       -1.01823354069730       -1.74589213141730
11
 energy: -19.465857275501 gnorm: 0.000505403600 xtb: 6.5.1 (b24c23e)
C            1.11149366658498       -1.13144290464832       -0.75001231615389
O            2.09927921666789       -1.46488519804725       -0.18813567842905
O            0.17463198156895       -0.23553184903819       -0.17427127014287
H            0.40725850727837        0.00226561911313        0.75026938264797
H            0.77135356912540       -1.41235505492323       -1.74614105308125
C           -3.02491454205747       -0.56218900904254       -1.59880398272246
O           -2.42749562628406       -1.17157006713961       -0.51050372786484
H           -1.12995737199971       -0.60544389322265       -0.31636955723050
H           -2.44869418037603       -0.70544597907617       -2.52481232241967
H           -3.17258590946121        0.51627222309223       -1.44227100303207
H           -4.01137593603550       -1.01814917205715       -1.74413685156003
11
 energy: -19.466396853513 gnorm: 0.000636039477 xtb: 6.5.1 (b24c23e)
C            1.11485409824850       -1.13380140978902       -0.75271712853419
O            2.09943230404495       -1.46703511536615       -0.18735833067958
O            0.17168943359446       -0.23052598362026       -0.17444263711248
H            0.40461554406901        0.00254011421703        0.75042370258668
H            0.77295829660217       -1.41124611983938       -1.74854759908463
C           -3.02338227518784       -0.56174445504894       -1.59825806578998
O           -2.42617227229652       -1.17071357142222       -0.50883605764880
H           -1.13771497435010       -0.60828798654837       -0.31688056255638
H           -2.44709727141676       -0.70630771392350       -2.52376306800091
H           -3.17054297379520        0.51667948756815       -1.44248880239493
H           -4.00964653450107       -1.01803253121710       -1.74231983077346
11
 energy: -19.466875088281 gnorm: 0.000449643268 xtb: 6.5.1 (b24c23e)
C            1.11826503341151       -1.13600800960903       -0.75559570844964
O            2.09898099534596       -1.46980217245942       -0.18607441219847
O            0.16868207274769       -0.22526890817545       -0.17514215206765
H            0.40160953204314        0.00316516056223        0.75009029146151
H            0.77513885179553       -1.40967603631932       -1.75140482579127
C           -3.02173976562208       -0.56135351261136       -1.59752589749458
O           -2.42508733544623       -1.17014698206620       -0.50690813361893
H           -1.14568453339427       -0.61144688792816       -0.31726888070701
H           -2.44517813079560       -0.70723115982212       -2.52238936868783
H           -3.16814012219871        0.51705230293124       -1.44242869126642
H           -4.00785322287531       -1.01775907949216       -1.74054060116836
11
 energy: -19.467295251112 gnorm: 0.000770871492 xtb: 6.5.1 (b24c23e)
C            1.12150591963930       -1.13842260894436       -0.75842262638574
O            2.09814940773703       -1.47289375794804       -0.18449654394676
O            0.16557603026996       -0.21988537482153       -0.17613309040259
H            0.39846544706270        0.00413903403909        0.74942111715154
H            0.77772178246952       -1.40776423535953       -1.75455198016512
C           -3.02004444228254       -0.56099905931633       -1.59668588209821
O           -2.42394693663408       -1.16970972374597       -0.50491884492916
H           -1.15357541518366       -0.61477870090680       -0.31755897367809
H           -2.44314638124216       -0.70808705601164       -2.52088735746084
H           -3.16568485223514        0.51737219272933       -1.44213811296657
H           -4.00602718458931       -1.01744599470396       -1.73881608510711
11
 energy: -19.452618379216 gnorm: 0.000805805440 xtb: 6.5.1 (b24c23e)
C            1.10271121441251       -1.15514990109693       -0.70383033229226
O            2.05556665846997       -1.49516255827724       -0.08771549552921
O            0.18089902221077       -0.22876835066265       -0.20015313344250
H            0.36010984083111        0.02370518782283        0.73955987171575
H            0.80802308104830       -1.45973222409361       -1.70895374034929
C           -3.04884292296065       -0.56862781047210       -1.60239115908674
O           -2.32962788001767       -1.21261770731514       -0.63132318466079
H           -0.95862551382495       -0.52680575798914       -0.38452962233823
H           -2.50953583428683       -0.51663866985921       -2.56583303044411
H           -3.32204314661203        0.46263417289239       -1.31259479489207
H           -3.98964114427113       -1.11131166594920       -1.78742375868133
11
 energy: -19.453443934063 gnorm: 0.000371500658 xtb: 6.5.1 (b24c23e)
C            1.10562297343942       -1.15690977654666       -0.70656834281066
O            2.05478167221171       -1.49696567900935       -0.08671822797998
O            0.17715930785656       -0.22452211343492       -0.20121770068679
H            0.35613464002059        0.02372047816632        0.73881853180559
H            0.80981653999419       -1.45827945619020       -1.71170802571771
C           -3.04639275296083       -0.56780141629278       -1.60144304336141
O           -2.32783667647915       -1.21150643146930       -0.62881854771520
H           -0.96752793346162       -0.53094467270426       -0.38539168116358
H           -2.50687972214421       -0.51778435858789       -2.56452260069835
H           -3.31906015988637        0.46366919003848       -1.31292316948459
H           -3.98682451359088       -1.11115104896946       -1.78469557218811
11
 energy: -19.453954854129 gnorm: 0.000695311850 xtb: 6.5.1 (b24c23e)
C            1.10902467326428       -1.15912323061937       -0.70938027889116
O            2.05417067428755       -1.49892813393586       -0.08539798089069
O            0.17375322920818       -0.21942855337055       -0.20258517011820
H            0.35179313308647        0.02384286907782        0.73802470551691
H            0.81239735490563       -1.45639942444116       -1.71480661133139
C           -3.04439482050456       -0.56718743153183       -1.60040541482411
O           -2.32741305690778       -1.21145477405139       -0.62591171707611
H           -0.97579642047510       -0.53483206730953       -0.38631642116663
H           -2.50407713408003       -0.51949516386227       -2.56277861886259
H           -3.31554952435569        0.46464232065055       -1.31294419247595
H           -3.98491473342950       -1.11011169560645       -1.78268667988089
11
 energy: -19.454415654118 gnorm: 0.000578264858 xtb: 6.5.1 (b24c23e)
C            1.11355216511737       -1.15877641337596       -0.71454562438243
O            2.04657123229920       -1.50723859228788       -0.07915050880078
O            0.17053731466081       -0.21094344143318       -0.20970728905595
H            0.34328749975603        0.02591671818420        0.73228794924209
H            0.82392015742451       -1.44513393605581       -1.72450836876501
C           -3.04118889435067       -0.56753780371308       -1.59704978892080
O           -2.33382523175540       -1.21696478990394       -0.61675727846381
H           -0.99041975328615       -0.54334357735943       -0.38690789338351
H           -2.49530439692737       -0.52747866271687       -2.55589799840869
H           -3.30354101981901        0.46657875265699       -1.31197347843400
H           -3.98459569811987       -1.10355353899501       -1.78097810062794
11
 energy: -19.454814436627 gnorm: 0.000747306840 xtb: 6.5.1 (b24c23e)
C            1.11686832662855       -1.16148732608371       -0.71673542468740
O            2.04723937530370       -1.50803351532132       -0.07849063260164
O            0.16620055964827       -0.20774421336876       -0.20933576225967
H            0.34041758390172        0.02578642829955        0.73248948685907
H            0.82632198205100       -1.44399783668212       -1.72682443867177
C           -3.03981986204925       -0.56668758709391       -1.59662488392112
O           -2.33187486631292       -1.21510091756934       -0.61532635641844
H           -0.99677238841448       -0.54680087666311       -0.38744090551721
H           -2.49472489560850       -0.52883386565433       -2.55572699180238
H           -3.30167397861934        0.46767582159712       -1.31291560465049
H           -3.98318846152930       -1.10325139646003       -1.77825686632977
11
 energy: -19.455168449231 gnorm: 0.000554141011 xtb: 6.5.1 (b24c23e)
C            1.12233285837416       -1.16109078916190       -0.72125356065157
O            2.04149975401457       -1.51487217722076       -0.07274177560866
O            0.16317807958564       -0.20036601006787       -0.21499114398650
H            0.33148162390054        0.02602652164861        0.72856226873483
H            0.83822380342026       -1.43311592038240       -1.73545416188312
C           -3.03748223244329       -0.56673561312393       -1.59393060244302
O           -2.33702275909119       -1.21887443886953       -0.60801936861253
H           -1.00941788179334       -0.55559569292545       -0.38838380925798
H           -2.48955700654802       -0.53750004443465       -2.55117802887452
H           -3.29005486259864        0.47037189784527       -1.31367728116127
H           -3.98418800182122       -1.09672301830735       -1.77412091625645
11
 energy: -19.455469607211 gnorm: 0.000402966270 xtb: 6.5.1 (b24c23e)
C            1.12576087299059       -1.16380032117758       -0.72334108532579
O            2.04235149816249       -1.51565013519825       -0.07211607811577
O            0.15879054969379       -0.19741789476489       -0.21439111890622
H            0.32897405292050        0.02610137343695        0.72881720244857
H            0.84062704157325       -1.43207210435070       -1.73760183847622
C           -3.03622665565330       -0.56589847041237       -1.59358751857403
O           -2.33498340565203       -1.21707098892942       -0.60681979924460
H           -1.01582125245302       -0.55889660757711       -0.38899192699892
H           -2.48921730809046       -0.53880970593632       -2.55113343712524
H           -3.28830595911637        0.47138426218457       -1.31453182666514
H           -3.98295605937597       -1.09634469227485       -1.77149095301742
11
 energy: -19.455723896775 gnorm: 0.000732583230 xtb: 6.5.1 (b24c23e)
C            1.12938788160596       -1.16633392951609       -0.72562147399766
O            2.04257196230924       -1.51716178562400       -0.07101041183526
O            0.15542126366453       -0.19300519504039       -0.21486574514078
H            0.32538954662916        0.02635939567459        0.72860521944137
H            0.84301360704852       -1.43090156723270       -1.73992713018287
C           -3.03469614870564       -0.56516915543259       -1.59295781358554
O           -2.33361025104692       -1.21640328552844       -0.60528937100933
H           -1.02319808951626       -0.56253458629671       -0.38994114426579
H           -2.48809832079257       -0.53985015103426       -2.55050403919891
H           -3.28577678729647        0.47232596571159       -1.31475224127081
H           -3.98141128890007       -1.09580099068097       -1.76892422895519
11
 energy: -19.455937021434 gnorm: 0.000897072467 xtb: 6.5.1 (b24c23e)
C            1.13321395048743       -1.16873432498283       -0.72799920053575
O            2.04244235125630       -1.51918822024522       -0.06959129677784
O            0.15239059424160       -0.18810914159317       -0.21583885413744
H            0.32155593629754        0.02708133554606        0.72794500463881
H            0.84578070103251       -1.42948253771492       -1.74243252721274
C           -3.03312621253886       -0.56451536122623       -1.59219073651827
O           -2.33275594912673       -1.21649316758373       -0.60352318153737
H           -1.03132869734242       -0.56637274843038       -0.39099181884609
H           -2.48649923196973       -0.54091559969042       -2.54943751350132
H           -3.28275327733887        0.47316555206156       -1.31448245231893
H           -3.97992678999931       -1.09491107114069       -1.76664580325385
11
 energy: -19.456123443185 gnorm: 0.000719403708 xtb: 6.5.1 (b24c23e)
C            1.13963869921640       -1.16816558161408       -0.73244335662791
O            2.03553780051864       -1.52710820777084       -0.06220601372625
O            0.14895254276510       -0.18090514361035       -0.22341305708691
H            0.31355241937796        0.03182057358355        0.72051550783898
H            0.86118956763661       -1.41787991578760       -1.75155229365631
C           -3.03117147260305       -0.56469972232077       -1.58913705290231
O           -2.34018000638222       -1.22401237263021       -0.59632829121032
H           -1.04701067460984       -0.57803931323815       -0.39043861294580
H           -2.48024505297961       -0.54900685281561       -2.54336642919570
H           -3.26905328036997        0.47529913026799       -1.31227942687821
H           -3.98221716757048       -1.08577787906392       -1.76453935361003
11
 energy: -19.456263648817 gnorm: 0.000492381688 xtb: 6.5.1 (b24c23e)
C            1.14251020348761       -1.17129054178916       -0.73430299967966
O            2.03598323286301       -1.52775198188141       -0.06130108391465
O            0.14459513676105       -0.17735259770876       -0.22329754042321
H            0.31067745844616        0.03194838644284        0.72055938011314
H            0.86340207410878       -1.41694942669585       -1.75369402027301
C           -3.02966221238958       -0.56387704890056       -1.58866158744475
O           -2.33772585214162       -1.22236119583183       -0.59543352559091
H           -1.05289894118208       -0.58173311640826       -0.39115568390468
H           -2.47998396921809       -0.54975091856271       -2.54343604870845
H           -3.26725449846237        0.47627428055742       -1.31281735523811
H           -3.98064925727333       -1.08563112422172       -1.76164791493648
11
 energy: -19.456367383540 gnorm: 0.000962830210 xtb: 6.5.1 (b24c23e)
C            1.14597398298993       -1.17401325184780       -0.73641026317568
O            2.03610171920580       -1.52930351135254       -0.06014814924414
O            0.14129615484170       -0.17273412890066       -0.22389440458350
H            0.30689717995462        0.03244379798158        0.72025597066615
H            0.86571164401037       -1.41591742114925       -1.75587973017911
C           -3.02809561938202       -0.56319257275798       -1.58800561155536
O           -2.33607106485995       -1.22189859813890       -0.59418790527311
H           -1.06011459913605       -0.58534359848729       -0.39230976306502
H           -2.47897939768432       -0.55049379072090       -2.54286462720471
H           -3.26465880276829        0.47710581481888       -1.31271438189705
H           -3.97906782217226       -1.08512802444515       -1.75902951448922
11
 energy: -19.456425691085 gnorm: 0.000564438595 xtb: 6.5.1 (b24c23e)
C            1.14941117481950       -1.17514145386499       -0.73848335313186
O            2.03560896297453       -1.53094980066151       -0.05867208322610
O            0.13850572812872       -0.16939379040256       -0.22496007516466
H            0.30320254428287        0.03313695403136        0.71931289330618
H            0.86876390168005       -1.41440730845773       -1.75807542114565
C           -3.02688283688595       -0.56277379485399       -1.58721621968312
O           -2.33579469250564       -1.22250026700631       -0.59261475005595
H           -1.06649763334979       -0.58886775724120       -0.39323685996534
H           -2.47769533697788       -0.55202146598613       -2.54182323897458
H           -3.26114982726650        0.47795306053853       -1.31238698840589
H           -3.97847860990041       -1.08350966109548       -1.75703228355376
11
 energy: -19.456464946693 gnorm: 0.000922824833 xtb: 6.5.1 (b24c23e)
C            1.15595707908606       -1.17088734538733       -0.74189651079265
O            2.02718309455884       -1.53558771406854       -0.04838836130524
O            0.13122852856558       -0.16904182060647       -0.23352577916184
H            0.29069247978243        0.03416838885085        0.71094458513468
H            0.89456108485989       -1.39489178038555       -1.76971728800114
C           -3.02609540419883       -0.56291218798441       -1.58361670369802
O           -2.34536478972284       -1.22987369047572       -0.58537397688394
H           -1.07536214153667       -0.60708229461844       -0.39288524818640
H           -2.47761496424768       -0.56963974990412       -2.53832578399518
H           -3.23860509689240        0.48346702155879       -1.31426499239825
H           -3.98758649525492       -1.06619411197900       -1.74813832071290
11
 energy: -19.456484400677 gnorm: 0.000391246979 xtb: 6.5.1 (b24c23e)
C            1.15776163240646       -1.17180484715475       -0.74263010378074
O            2.02861739877353       -1.53523782367799       -0.04865322913858
O            0.12994272981540       -0.16769376880784       -0.23259164395510
H            0.28849977315714        0.03228766892464        0.71249207053912
H            0.89481988821708       -1.39470976110308       -1.77014746976584
C           -3.02568373060724       -0.56260393823199       -1.58361239655986
O           -2.34401822768458       -1.22852424985619       -0.58515929113706
H           -1.07757176035899       -0.60743512103318       -0.39443499710797
H           -2.47850448180736       -0.57098189616695       -2.53901404965954
H           -3.23743237273013        0.48426270628429       -1.31566223014508
H           -3.98743747418182       -1.06603425417690       -1.74577503929022
11
 energy: -19.456495005589 gnorm: 0.000543132533 xtb: 6.5.1 (b24c23e)
C            1.15967610910333       -1.17184163491508       -0.74320347843423
O            2.02965941225488       -1.53554272248845       -0.04875918501506
O            0.12942263047027       -0.16671240399805       -0.23155203368162
H            0.28625428220366        0.02986536345072        0.71435315716588
H            0.89649138992240       -1.39252246444740       -1.77102234146079
C           -3.02569772384846       -0.56253177195072       -1.58376412969667
O           -2.34362446143781       -1.22763853192818       -0.58487700878323
H           -1.07948411911194       -0.60789888323000       -0.39563758188181
H           -2.48030646441660       -0.57442905285968       -2.54011146553172
H           -3.23475459167506        0.48536210416426       -1.31799465829884
H           -3.98864308846519       -1.06458528679740       -1.74261965438278
11
 energy: -19.456501170855 gnorm: 0.000416439321 xtb: 6.5.1 (b24c23e)
C            1.16099904595869       -1.17177466730086       -0.74369479995154
O            2.02999006043808       -1.53597462381517       -0.04862410938323
O            0.12870447015336       -0.16618494790032       -0.23093003197206
H            0.28489013931553        0.02833830347680        0.71535288148527
H            0.89841207127572       -1.39010861703610       -1.77205408493156
C           -3.02570203994694       -0.56251093852729       -1.58381974034014
O           -2.34370455591468       -1.22713388472695       -0.58434571565153
H           -1.08107613598408       -0.60881009559188       -0.39614793494823
H           -2.48145323113541       -0.57748940719279       -2.54072805771606
H           -3.23231932727106        0.48624576983652       -1.31982848629747
H           -3.98974712188971       -1.06307217622192       -1.74036830029435
11
 energy: -19.456504817593 gnorm: 0.000378611160 xtb: 6.5.1 (b24c23e)
C            1.16202164270594       -1.17156914999721       -0.74418282386042
O            2.02996689484697       -1.53651253141548       -0.04843263402831
O            0.12810867594597       -0.16570651229386       -0.23058548494213
H            0.28379213665418        0.02733098311349        0.71597476703047
H            0.89976468245361       -1.38835246976113       -1.77289564203398
C           -3.02560391286462       -0.56251278745273       -1.58378817501173
O           -2.34381144187885       -1.22681431916566       -0.58381149261077
H           -1.08228374766584       -0.60950899049384       -0.39658495317393
H           -2.48205740848794       -0.57964862636874       -2.54102667706293
H           -3.23050719410025        0.48684387967166       -1.32106328530184
H           -3.99039695260967       -1.06202476083645       -1.73879197900534
11
 energy: -19.458762670456 gnorm: 0.000591037654 xtb: 6.5.1 (b24c23e)
C            1.16268154333742       -1.16617604837753       -0.74170969324480
O            2.03373978867437       -1.53526419989405       -0.04968498447196
O            0.13463855099990       -0.16910142704236       -0.22892579528769
H            0.29294900072604        0.02586923817331        0.71660107996267
H            0.90489508607524       -1.38242640423480       -1.77208552862140
C           -3.02779927118323       -0.56184297275332       -1.58562030878626
O           -2.35040041373795       -1.22858786324297       -0.58226535387013
H           -1.09738176831314       -0.61664258396451       -0.39654221796490
H           -2.48399461431346       -0.58653163814664       -2.54198902035040
H           -3.22548699619368        0.48899971118846       -1.32567789146044
H           -3.99484753107200       -1.05677109670556       -1.73728866590559
11
 energy: -19.458788417969 gnorm: 0.000219739942 xtb: 6.5.1 (b24c23e)
C            1.16493963257785       -1.16683246829344       -0.74337735238812
O            2.03520547803939       -1.53468206973270       -0.05052582575488
O            0.13265783338597       -0.16785139723407       -0.22826782367210
H            0.29108802689538        0.02533173942871        0.71731234713575
H            0.90485148065058       -1.38204395814851       -1.77315764258762
C           -3.02698269808301       -0.56128366821759       -1.58573377191527
O           -2.35062190626603       -1.22759452118141       -0.58101419524043
H           -1.10134224615448       -0.61934799431449       -0.39520062082271
H           -2.48302796731695       -0.58817583132507       -2.54178191252300
H           -3.22354370609221        0.48996656172707       -1.32729308372223
H           -3.99423055263699       -1.05596167770847       -1.73614849851029
11
 energy: -19.458801498674 gnorm: 0.000226995808 xtb: 6.5.1 (b24c23e)
C            1.16599308937493       -1.16734986158753       -0.74445470338443
O            2.03567683565646       -1.53458127381378       -0.05110378869601
O            0.13106209318527       -0.16668321064323       -0.22797549843618
H            0.29004562340521        0.02520582198431        0.71753494847450
H            0.90506085575350       -1.38130539579031       -1.77410896009663
C           -3.02622950974048       -0.56112804147787       -1.58558287985835
O           -2.35089200400088       -1.22736911661942       -0.57980462000691
H           -1.10435659603196       -0.62109629241689       -0.39463792108549
H           -2.48184162871313       -0.58959061990603       -2.54124805146118
H           -3.22170005830190        0.49047189931336       -1.32807049478035
H           -3.99382532558753       -1.05504919404259       -1.73573641066987
11
 energy: -19.485075424862 gnorm: 0.000620060750 xtb: 6.5.1 (b24c23e)
C           -0.14469015283881       -0.92220335257828       -0.91492431024820
O           -0.24368900493326       -2.11944212280716       -0.53441375412903
O            0.43947533973685       -0.02827685897524       -0.00363542993672
H            0.60372840563541       -0.48069627902714        0.86820613765532
H            0.37494480915709       -0.75323886819763       -1.89634741733791
C           -2.51136751986599       -0.84308344544313       -1.59442328201533
O           -1.42232602852348       -0.15973428821153       -1.01963943963072
H           -0.38468300574700        0.56959659950302        0.04447495834309
H           -2.47815947631642       -0.77555763850146       -2.68592752389625
H           -3.41924391731322       -0.38120101894710       -1.21395157227636
H           -2.46499607399366       -1.89463801181245       -1.29460674653003
11
 energy: -19.486047087237 gnorm: 0.000660619286 xtb: 6.5.1 (b24c23e)
C           -0.14547471679787       -0.92732792531128       -0.91943270561052
O           -0.24221538296210       -2.12215893154340       -0.53685478056292