11
 energy: -19.511116311669 gnorm: 0.452632130010 xtb: 6.5.1 (b24c23e)
C           -0.08925717306475       -1.07261901306098       -1.33225741411416
O           -0.17909240387942       -2.23902092390133       -1.01778209610755
O            0.23670800688863       -0.01429381297733        0.27550253281763
H           -0.01173016437060       -0.32693970256149        1.15923531229202
H            0.82092262940793       -0.62422651173745       -1.75253225501516
C           -2.45834560017250       -0.83761432058724       -1.48165511980690
O           -1.14587786840746       -0.27413501601577       -1.62193761111989
H           -0.48780209008677        0.51637367527337       -0.10991518090248
H           -2.90432036131987       -0.90946731529492       -2.47241375636393
H           -3.05018666596967       -0.17570076833487       -0.85367256146514
H           -2.38202493402801       -1.83083157580002       -1.03776023021603
11
 energy: -19.454484925401 gnorm: 1.713851181609 xtb: 6.5.1 (b24c23e)
C           -0.09291633959275       -1.08510432534273       -1.35174132680633
O           -0.17925469131379       -2.23977526683561       -1.01868484824746
O            0.24087619089401       -0.00077542842174        0.29506357780589
H           -0.01159006643083       -0.32704716636174        1.16097880462561
H            0.82111542778515       -0.62494708485443       -1.75346328203131
C           -2.45859469176797       -0.83793003575948       -1.48211872091982
O           -1.15326938094919       -0.28420427790305       -1.64155706768331
H           -0.48015597739110        0.52760262504347       -0.08971263019178
H           -2.90538348249073       -0.90990301944332       -2.47246941396581
H           -3.04961885276430       -0.17545376468817       -0.85378627013818
H           -2.38221476098099       -1.83093754043124       -1.03769720244909
11
 energy: -19.515373212103 gnorm: 0.008906663744 xtb: 6.5.1 (b24c23e)
C           -0.08984059619247       -1.07498507003256       -1.33649312627168
O           -0.17930250697559       -2.23972634634534       -1.01857158871957
O            0.23763495441227       -0.01106867350358        0.27956223148964
H           -0.01179914745845       -0.32691554810612        1.16088352967511
H            0.82083224397900       -0.62468159310807       -1.75339545865866
C           -2.45831487259412       -0.83789082223727       -1.48217902472037
O           -1.14644853386177       -0.27623506928266       -1.62586747700281
H           -0.48642482861299        0.51947808295571       -0.10512144721291
H           -2.90549874024685       -0.90994224732729       -2.47243920522353
H           -3.04950854686233       -0.17555969583123       -0.85384122648263
H           -2.38233605058920       -1.83094830217961       -1.03772558687418
11
 energy: -19.515376432782 gnorm: 0.004298227569 xtb: 6.5.1 (b24c23e)
C           -0.08950464046570       -1.07508891217425       -1.33701585059288
O           -0.17914366926961       -2.24003634044385       -1.01903226848212
O            0.23672434518082       -0.01115238142634        0.27919733734527
H           -0.01172776672085       -0.32646803092695        1.16139467994043
H            0.82110955328533       -0.62497287726422       -1.75381914546612
C           -2.45797944256570       -0.83782133714145       -1.48217954870538
O           -1.14536332621882       -0.27640729726772       -1.62602710506594
H           -0.48801601112293        0.51936617121916       -0.10451274338844
H           -2.90602404350970       -0.90997228758962       -2.47204565603403
H           -3.04860019164983       -0.17512822506383       -0.85368074931014
H           -2.38248143194549       -1.83079376691896       -1.03746733024224
11
 energy: -19.515373808068 gnorm: 0.014446182631 xtb: 6.5.1 (b24c23e)
C           -0.08977897283643       -1.07470833146010       -1.33746115399863
O           -0.17911495291025       -2.24013350744245       -1.01973555820263
O            0.23655077874235       -0.01211237347949        0.27898865653140
H           -0.01206485717875       -0.32542001622098        1.16248486090807
H            0.82105134554732       -0.62475659662420       -1.75373552513656
C           -2.45805453712559       -0.83809294047765       -1.48231445033150
O           -1.14499749186449       -0.27658419465685       -1.62601328399396
H           -0.48765503001589        0.51935640041189       -0.10432359889149
H           -2.90650686744007       -0.91032311713503       -2.47196004848100
H           -3.04782605764645       -0.17479634723805       -0.85378269937873
H           -2.38260998227424       -1.83090426067513       -1.03733557902656
11
 energy: -19.515378200262 gnorm: 0.002089354160 xtb: 6.5.1 (b24c23e)
C           -0.09024566806765       -1.07460829699406       -1.33745920240656
O           -0.17920580431875       -2.23997234778982       -1.01984645001969
O            0.23725811553567       -0.01237700417283        0.27945681969927
H           -0.01232642847425       -0.32516039759632        1.16263279469816
H            0.82080542096814       -0.62441431394939       -1.75332663399899
C           -2.45838349707207       -0.83828037947859       -1.48235107695149
O           -1.14564474504765       -0.27644330087841       -1.62566051070370
H           -0.48621877225304        0.51930472045249       -0.10496996531236
H           -2.90627585909872       -0.91046145266527       -2.47223461589876
H           -3.04821485390597       -0.17497347174242       -0.85395484243909
H           -2.38255453326820       -1.83108904018342       -1.03747469666839
11
 energy: -19.515378632771 gnorm: 0.000543109742 xtb: 6.5.1 (b24c23e)
C           -0.08996711632632       -1.07486491838142       -1.33758846711925
O           -0.17897375379269       -2.24036917776808       -1.02059951655694
O            0.23656490317354       -0.01226284979849        0.27935289988323
H           -0.01221027668279       -0.32465401270630        1.16284127575242
H            0.82104975058332       -0.62469051997525       -1.75355835513799
C           -2.45817874248497       -0.83813326527807       -1.48220202210934
O           -1.14506874225648       -0.27670257145251       -1.62595405133552
H           -0.48740431061168        0.51912910621662       -0.10450434990061
H           -2.90636940734738       -0.91036461638977       -2.47194331926731
H           -3.04782006756002       -0.17463560318378       -0.85379348127943
H           -2.38262886169702       -1.83092685628099       -1.03723899293086
