11
 energy: -19.515378632807 gnorm: 0.000542999836 xtb: 6.5.1 (b24c23e)
C           -0.08996711632632       -1.07486491838142       -1.33758846711925
O           -0.17897375379269       -2.24036917776808       -1.02059951655694
O            0.23656490317354       -0.01226284979849        0.27935289988323
H           -0.01221027668279       -0.32465401270630        1.16284127575242
H            0.82104975058332       -0.62469051997525       -1.75355835513799
C           -2.45817874248497       -0.83813326527807       -1.48220202210934
O           -1.14506874225648       -0.27670257145251       -1.62595405133552
H           -0.48740431061168        0.51912910621662       -0.10450434990061
H           -2.90636940734738       -0.91036461638977       -2.47194331926731
H           -3.04782006756002       -0.17463560318378       -0.85379348127943
H           -2.38262886169702       -1.83092685628099       -1.03723899293086
