15
 energy: -25.388872288807 gnorm: 0.000810220170 xtb: 6.6.1 (8d0f1dd)
O            2.65951708422797        0.66690612867259        0.89982057157929
O            0.87964355500508        2.48471379442888        1.41360317442592
O           -1.09440241534572        1.85224491927016       -0.14853773613422
O           -1.03288755053753       -0.71288497559566        0.23084103119877
O            1.40585992852043       -1.05357649319844       -0.58546334797739
H            2.03588768776544       -0.19007082073226        0.15067016770566
H            1.75559977953059        1.56388800528845        1.15033875160906
H           -0.09867832156782        2.15974897075490        0.62507595544838
H           -1.08703717385766        0.56227280477567       -0.00504597303289
H            0.17907998078697       -0.92766973056597       -0.18091893906633
H            1.25073841221270        3.27406653786523        1.01400527656775
H            2.78785221498407        0.20692170829977        1.73207784402966
H            1.39984438601463       -0.65242906126593       -1.45723904334638
H           -0.96827120869482       -0.77726547011960        1.18703260305101
H           -1.87528024604633        2.14750627013007        0.32452790094541
15
 energy: -25.389315897052 gnorm: 0.000325602880 xtb: 6.6.1 (8d0f1dd)
O            2.65835174392963        0.66798018303483        0.89666038928365
O            0.87680049630493        2.47986761014535        1.41612333314525
O           -1.09100408126270        1.85105644655417       -0.15190232220262
O           -1.03103791186432       -0.71082998419859        0.23403793679952
O            1.40444268132447       -1.05294134142660       -0.58473453048684
H            2.03430227471051       -0.18915698482157        0.14924734425004
H            1.75383755371353        1.56200329961095        1.15036190681442
H           -0.09887805633265        2.15765038622700        0.62476215020825
H           -1.08544334681891        0.56239774396926       -0.00510437375819
H            0.17932261845866       -0.92680212968714       -0.17853294658747
H            1.24772813846195        3.27187704721261        1.02162978143076
H            2.79071808718497        0.20772872582633        1.72813847225263
H            1.39716624331538       -0.65272929521278       -1.45695369157846
H           -0.96510293048429       -0.77227966631557        1.19037517164456
H           -1.87373739764250        2.14855054708970        0.31667961578829
15
 energy: -25.390301682975 gnorm: 0.000195723757 xtb: 6.6.1 (8d0f1dd)
O            2.65464548281563        0.66920451083724        0.89335821239286
O            0.87499217399451        2.47529661204110        1.41679117356992
O           -1.08667109891846        1.84908923160437       -0.15245616751993
O           -1.02842105504256       -0.70800670383333        0.23488880139169
O            1.40260984775162       -1.05128783362493       -0.58211145062396
H            2.03168016620576       -0.18760730754006        0.14864163850856
H            1.75144277320324        1.56056632677789        1.14944507678794
H           -0.09824712393187        2.15526181904164        0.62528619188438
H           -1.08236859308339        0.56283747970806       -0.00466196156724
H            0.17965273475584       -0.92473024017473       -0.17680546070631
H            1.24551865071088        3.26947626779959        1.02623194064160
H            2.79137472855811        0.20920495273801        1.72428992205408
H            1.39561793900825       -0.65387430820663       -1.45563178147706
H           -0.96324739313911       -0.76930111731897        1.19132645676375
H           -1.87111311988979        2.14824289815871        0.31219564490351
15
 energy: -25.391238497927 gnorm: 0.000114322692 xtb: 6.6.1 (8d0f1dd)
O            2.65132067961725        0.67047671476316        0.89029495235772
O            0.87369981657736        2.47134240148166        1.41672081196146
O           -1.08332540963559        1.84756169341231       -0.15195611898045
O           -1.02628072033663       -0.70524040234346        0.23428292475263
O            1.40109738115909       -1.05003621382942       -0.57885715063864
H            2.02935224200945       -0.18627937693105        0.14855353946788
H            1.74953633171816        1.55954748257146        1.14809094551709
H           -0.09743518953590        2.15340862921085        0.62542548108864
H           -1.07980006149822        0.56352891705766       -0.00433359783723
H            0.17992308564668       -0.92261063014782       -0.17555437009578
H            1.24372249776265        3.26752871490712        1.02974246466165
H            2.79196797539639        0.21115142972026        1.72097569295341
H            1.39528676270239       -0.65604328814358       -1.45395122916564
H           -0.96290981636488       -0.76763627653360        1.19080173194399
H           -1.86868946221954        2.14767279281240        0.31055215901705
15
 energy: -25.392127877087 gnorm: 0.000101577593 xtb: 6.6.1 (8d0f1dd)
O            2.64815385713483        0.67186653940447        0.88720019852252
O            0.87256706870320        2.46766967600675        1.41655947814225
O           -1.08039000185762        1.84633009632724       -0.15103009425049
O           -1.02433557882733       -0.70245133087116        0.23305157135025
O            1.39977415100418       -1.04914207756896       -0.57529703923006
H            2.02713232333134       -0.18500417074327        0.14857982953138
H            1.74776673246596        1.55869983794962        1.14671369904741
H           -0.09667413687139        2.15172743727868        0.62568289293641
H           -1.07744022434989        0.56439339864375       -0.00415676857094
H            0.18020076462557       -0.92051223737413       -0.17448099141203
H            1.24203061154646        3.26576499854404        1.03295266061820
H            2.79280454579148        0.21334294394898        1.71767096625073
H            1.39552492495748       -0.65910217058310       -1.45218464044908
H           -0.96318261132731       -0.76631408098202        1.18964775909752
H           -1.86646631332830        2.14710372802704        0.30987871541969
15
 energy: -25.392971434188 gnorm: 0.000129893597 xtb: 6.6.1 (8d0f1dd)
O            2.64513731356031        0.67346560709447        0.88405959965992
O            0.87165825955080        2.46442456643229        1.41639414249794
O           -1.07784104638266        1.84544815014317       -0.14949999320944
O           -1.02264281208302       -0.69963437282270        0.23103928566272
O            1.39866745914188       -1.04863027195596       -0.57131690947061
H            2.02501146501125       -0.18366218490521        0.14867909477335
H            1.74612810841103        1.55811290459122        1.14532605790050
H           -0.09601539774127        2.15026661307528        0.62632760699764
H           -1.07528139940280        0.56546628346214       -0.00410714395370
H            0.18045225425717       -0.91840291758532       -0.17368622226879
H            1.24050855588910        3.26422221514693        1.03570070315560
H            2.79382837609527        0.21580483980333        1.71432762862183
H            1.39651867385922       -0.66355899778120       -1.45041586734365
H           -0.96417161659327       -0.76549401524878        1.18769589972473
H           -1.86449208057434        2.14654416855826        0.31026435425572
15
 energy: -25.393770974671 gnorm: 0.000109288437 xtb: 6.6.1 (8d0f1dd)
O            2.64233744780661        0.67517672505388        0.88099872552198
O            0.87120825937996        2.46179696608352        1.41591113597630
O           -1.07596744205068        1.84501152406886       -0.14699406721831
O           -1.02126148352800       -0.69680538889949        0.22782100668624
O            1.39786433704985       -1.04856135878862       -0.56685295704737
H            2.02314239870265       -0.18254387759010        0.14912690534378
H            1.74475811563123        1.55785498687651        1.14371942977234
H           -0.09545780686668        2.14914633658959        0.62736017012560
H           -1.07344435229200        0.56680267896475       -0.00419584739093
H            0.18071984778188       -0.91626272591123       -0.17329372141179
H            1.23934832434938        3.26300155968497        1.03743356678572
H            2.79490054474284        0.21873856394271        1.71126068729542
H            1.39846582924409       -0.66931760144553       -1.44849982736073
H           -0.96624873150718       -0.76555500782006        1.18450574171685
H           -1.86289917544527        2.14588920719814        0.31248728820867
15
 energy: -25.394527839525 gnorm: 0.000159415345 xtb: 6.6.1 (8d0f1dd)
O            2.63964928702755        0.67639700851644        0.87885837407103
O            0.87133309808703        2.45984474669803        1.41451636729479
O           -1.07465151953589        1.84450063974605       -0.14388227454309
O           -1.01994505012155       -0.69428789342764        0.22423717768982
O            1.39719762352336       -1.04805080434127       -0.56277853448516
H            2.02147704117413       -0.18165902438963        0.15002975183377
H            1.74371438300617        1.55768028667503        1.14210474164590
H           -0.09487405250362        2.14814445671014        0.62827968417083
H           -1.07189429806130        0.56796763060297       -0.00411278605818
H            0.18105608817472       -0.91406575290749       -0.17322476556735
H            1.23885704012369        3.26185320778285        1.03708079708663
H            2.79514654403036        0.22124859820379        1.70930669156575
H            1.40053994340942       -0.67374008579964       -1.44655150706611
H           -0.96859136826171       -0.76637471585423        1.18090452492838
H           -1.86154864707369        2.14491428979248        0.31601999443675
15
 energy: -25.395243915441 gnorm: 0.000165087197 xtb: 6.6.1 (8d0f1dd)
O            2.63715729969721        0.67752873500877        0.87722567473123
O            0.87213259135549        2.45881053111392        1.41240069878800
O           -1.07412723631196        1.84429925090177       -0.13957882965060
O           -1.01895766458076       -0.69191461393570        0.21936618424465
O            1.39683067620235       -1.04771434455342       -0.55837198839188
H            2.01999029572123       -0.18087726542549        0.15137986156313
H            1.74305195958096        1.55787763597143        1.14037977186417
H           -0.09430557268712        2.14750490163489        0.62946712966357
H           -1.07071281606386        0.56925621703712       -0.00407769261807
H            0.18140442741080       -0.91182789110683       -0.17366627802551
H            1.23903448082371        3.26105069950587        1.03477773288716
H            2.79507982160687        0.22387462879919        1.70805686900916
H            1.40357371073482       -0.67873006865504       -1.44438628130217
H           -0.97211303504895       -0.76839093977149        1.17594463658001
H           -1.86057282544213        2.14362511148290        0.32187074766089
15
 energy: -25.395921017033 gnorm: 0.000266602820 xtb: 6.6.1 (8d0f1dd)
O            2.63479062309949        0.67839934404123        0.87634991153362
O            0.87374143100441        2.45886112874630        1.40934285571402
O           -1.07446846178788        1.84434820467512       -0.13394633692281
O           -1.01823053103284       -0.68972377917623        0.21322760215017
O            1.39677575501665       -1.04742808286576       -0.55380498723932
H            2.01867571326777       -0.18027740859308        0.15326265803643
H            1.74279685507515        1.55843034109126        1.13856588566324
H           -0.09379015948330        2.14720968417666        0.63099482898259
H           -1.06993015419572        0.57062519607223       -0.00399993645672
H            0.18179277051201       -0.90952212418610       -0.17472710295300
H            1.24003757943050        3.26055042967253        1.02987434537788
H            2.79432334022779        0.22641856962997        1.70780863179677
H            1.40759245554919       -0.68377649133188       -1.44200170974692
H           -0.97662742174035       -0.77167719887433        1.16961129742211
H           -1.86001368194418        2.14193477492998        0.33023029364571
15
 energy: -25.396561560111 gnorm: 0.000632815925 xtb: 6.6.1 (8d0f1dd)
O            2.63255994970177        0.67877834062778        0.87709917368984
O            0.87701805191163        2.46121427096067        1.40408150926321
O           -1.07684074060694        1.84499136679326       -0.12527229561936
O           -1.01797085961954       -0.68776843160965        0.20412134218091
O            1.39747079840215       -1.04733546914632       -0.54868134125207
H            2.01769419741301       -0.17996114717171        0.15626071684874
H            1.74336936678516        1.55979747774570        1.13653369242885
H           -0.09326146572478        2.14791457571947        0.63284137097853
H           -1.06998735787172        0.57228380766249       -0.00376042743483
H            0.18236228570678       -0.90694811788456       -0.17714458275358
H            1.24279189458536        3.26076842299764        1.01955848441825
H            2.79193982903798        0.22877797554378        1.70968457351231
H            1.41394737524603       -0.68963290330640       -1.43922370350255
H           -0.98335335471935       -0.77782401301140        1.16006446081162
H           -1.86027385724883        2.13931643208714        0.34462526343386
15
 energy: -25.397166081442 gnorm: 0.000625785310 xtb: 6.6.1 (8d0f1dd)
O            2.63073734675053        0.67936411884164        0.87744277862727
O            0.88015926162615        2.46328392788005        1.39869901459613
O           -1.07980091860857        1.84603153939645       -0.11641691152219
O           -1.01790057482303       -0.68550895514169        0.19431674752828
O            1.39827748602222       -1.04784056083978       -0.54293691739025
H            2.01693152229399       -0.17987834478303        0.15944446811890
H            1.74414600425494        1.56125479269099        1.13407471321041
H           -0.09268086452064        2.14876840579986        0.63413846705483
H           -1.07036437348190        0.57428788751059       -0.00385593954358
H            0.18292732566804       -0.90435419518179       -0.17957433074410
H            1.24520031572317        3.26121146327471        1.01009391533512
H            2.79024135970255        0.23176650176587        1.71132134012551
H            1.42088544314041       -0.69675778878559       -1.43599151605069
H           -0.99076934786880       -0.78393933403667        1.14967986056374
H           -1.86052387288037        2.13668312961630        0.36035254709434
15
 energy: -25.397735564446 gnorm: 0.000610092868 xtb: 6.6.1 (8d0f1dd)
O            2.62863928055409        0.67929125270052        0.87850981243476
O            0.88331604636113        2.46538221372234        1.39315048883696
O           -1.08199018591547        1.84628254521370       -0.10840359507858
O           -1.01752196847807       -0.68375075281453        0.18602267218636
O            1.39873705977942       -1.04740568653154       -0.53854816792991
H            2.01596871749823       -0.18000676442145        0.16267688438496
H            1.74479541220271        1.56237757996734        1.13196246115111
H           -0.09197635124978        2.14928728256900        0.63526989914109
H           -1.07043924305752        0.57563661341802       -0.00345605723847
H            0.18348206891616       -0.90204906488112       -0.18169559032337
H            1.24784177327064        3.26124925862649        0.99980609694859
H            2.78777403877169        0.23391130404385        1.71366399165006
H            1.42620923819863       -0.69997282844509       -1.43291989872849
H           -0.99697009014193       -0.78982548513334        1.14073612865858
H           -1.86039968371121        2.13396511997370        0.37401311091013
15
 energy: -25.398272448240 gnorm: 0.000790721007 xtb: 6.6.1 (8d0f1dd)
O            2.62642231084212        0.67846662260485        0.88112375013684
O            0.88732883205076        2.46866464565570        1.38599379599089
O           -1.08532424945353        1.84674325610260       -0.09902388773412
O           -1.01696501217658       -0.68198015041729        0.17692591455199
O            1.39960076294784       -1.04662178910407       -0.53458160624359
H            2.01523001243785       -0.18033752864553        0.16637860483032
H            1.74577205771997        1.56369513151186        1.12981609882301
H           -0.09134602694057        2.15027843611618        0.63626915446056
H           -1.07079639982023        0.57710381804188       -0.00278230661477
H            0.18433487256886       -0.89945945896872       -0.18452617434812
H            1.25147814699719        3.26136707123702        0.98592044132721
H            2.78331582658065        0.23514360575926        1.71781693595593
H            1.43234620695028       -0.70234552688269       -1.43002626757723
H           -1.00321509396637       -0.79667741864845        1.13077118112069
H           -1.86071613373948        2.13033187364526        0.39071260232406
15
 energy: -25.398776928771 gnorm: 0.000456737748 xtb: 6.6.1 (8d0f1dd)
O            2.62412548886704        0.67782811304612        0.88292032489276
O            0.89019900389110        2.47056418571256        1.38034283823449
O           -1.08714781163335        1.84660525587695       -0.09195196996832
O           -1.01604428592044       -0.68029197929830        0.17037367761427
O            1.39992319635844       -1.04547508398934       -0.53144020161156
H            2.01425688022011       -0.18031020664441        0.16912572439705
H            1.74624576613669        1.56450707639759        1.12800634592575
H           -0.09069239418275        2.15069833801899        0.63692150030016
H           -1.07054821066901        0.57813160239125       -0.00223191412985
H            0.18505020199771       -0.89715746089578       -0.18639487410900
H            1.25408153472738        3.26111565801123        0.97575758390995
H            2.77951279280954        0.23605874458222        1.72073728925934
H            1.43655254765734       -0.70367115676494       -1.42770518435540
H           -1.00759916862142       -0.80144846336508        1.12348576169846
H           -1.86044942863961        2.12721796492877        0.40284133494556
15
 energy: -25.399251071560 gnorm: 0.000281696312 xtb: 6.6.1 (8d0f1dd)
O            2.62180434068030        0.67731061778210        0.88423473174997
O            0.89237920309678        2.47163369577703        1.37558671046700
O           -1.08831450138664        1.84626105038663       -0.08617957916426
O           -1.01491692098511       -0.67858063936225        0.16517999978963
O            1.40000696186264       -1.04425745358593       -0.52871944762723
H            2.01321071141482       -0.18017652021898        0.17135793158887
H            1.74636851588585        1.56496143561145        1.12640291098694
H           -0.09009206029043        2.15078304437889        0.63736070370810
H           -1.07006479321205        0.57902098531221       -0.00168910989215
H            0.18571944313208       -0.89499472729877       -0.18781070295670
H            1.25602521513959        3.26059104522187        0.96764758632125
H            2.77620750325948        0.23683666593578        1.72294034459787
H            1.43987167263874       -0.70463727808265       -1.42570206956854
H           -1.01078282306158       -0.80498385279151        1.11764711675556
H           -1.85995635517573        2.12460451894196        0.41253111024727
15
 energy: -25.399696818825 gnorm: 0.000318208052 xtb: 6.6.1 (8d0f1dd)
O            2.61949892079615        0.67678843609956        0.88545597304213
O            0.89429758909036        2.47244947366617        1.37114304074922
O           -1.08924362172641        1.84582809164194       -0.08093116429331
O           -1.01371499058648       -0.67689858608589        0.16057709982857
O            1.40001717400179       -1.04297537663751       -0.52626339829346
H            2.01215954406294       -0.18000852597072        0.17337329495709
H            1.74636683141065        1.56527193606276        1.12493526784860
H           -0.08952469169465        2.15076974972573        0.63769520936591
H           -1.06951667896573        0.57982195598729       -0.00111635879288
H            0.18637702405959       -0.89290734638908       -0.18904904618516
H            1.25775309150430        3.25997028784416        0.96022720803865
H            2.77302641420704        0.23747186715715        1.72495113293332
H            1.44280228916959       -0.70533084338461       -1.42388234520644
H           -1.01344408048127       -0.80805206709053        1.11242110680429
H           -1.85938870184914        2.12217353538143        0.42125121620706
15
 energy: -25.400115767372 gnorm: 0.000294680772 xtb: 6.6.1 (8d0f1dd)
O            2.61726484338272        0.67626849640228        0.88672575601261
O            0.89621867392916        2.47330751745430        1.36674296163461
O           -1.09014628075582        1.84536418848720       -0.07575755646725
O           -1.01256861284728       -0.67528587280852        0.15606482600589
O            1.40002564263634       -1.04166360608789       -0.52388968517047
H            2.01113499847187       -0.17981099221214        0.17535983401217
H            1.74640208979132        1.56561287039306        1.12350091800210
H           -0.08893941735811        2.15076062087441        0.63801070368593
H           -1.06900656539227        0.58056960931568       -0.00050510727824
H            0.18701032149121       -0.89087242654940       -0.19027535050145
H            1.25946518736869        3.25935563819156        0.95279465377072
H            2.76981665331760        0.23806418171688        1.72700466247951
H            1.44565320119336       -0.70590667312275       -1.42210105765034
H           -1.01610670456983       -0.81119649631113        1.10724455316524
H           -1.85875791766023        2.11980553226430        0.42986812530254
15
 energy: -25.400509196372 gnorm: 0.000199838091 xtb: 6.6.1 (8d0f1dd)
O            2.61506697340679        0.67601688690473        0.88731620960296
O            0.89749581724927        2.47343363933633        1.36340209332719
O           -1.09029369441650        1.84473981103816       -0.07179813603271
O           -1.01135025194698       -0.67371237774747        0.15265155815972
O            1.39979032016113       -1.04041071152630       -0.52173972882052
H            2.01001478612028       -0.17947777077516        0.17685712671574
H            1.74613235085094        1.56571055985956        1.12227742647765
H           -0.08837729510261        2.15046016486647        0.63830567415768
H           -1.06823016153913        0.58118327858831        0.00000844046429
H            0.18753812930927       -0.88906855699988       -0.19100872378694
H            1.26054154494889        3.25858507840871        0.94753031565055
H            2.76742760326005        0.23874931854222        1.72813731263181
H            1.44767263453499       -0.70643866927966       -1.42052505842622
H           -1.01805268994913       -0.81329661221319        1.10329436582556
H           -1.85790995388852        2.11789854900502        0.43607936105686
15
 energy: -25.400878545524 gnorm: 0.000925933600 xtb: 6.6.1 (8d0f1dd)
O            2.61291389841102        0.67598731166333        0.88727914961697
O            0.89814880508255        2.47278550663328        1.36109211261951
O           -1.08971287375806        1.84393843166954       -0.06912820972466
O           -1.01004610196927       -0.67217972006380        0.15044571216203
O            1.39931139635344       -1.03914761340853       -0.51987571235587
H            2.00883362873716       -0.17901086145603        0.17784870613127
H            1.74558417785631        1.56552611770396        1.12126985095178
H           -0.08785764180586        2.14984371824156        0.63853512769863
H           -1.06720294928968        0.58163881120228        0.00048058629587
H            0.18797017229893       -0.88744899489994       -0.19124447241959
H            1.26099021370269        3.25764355465041        0.94444157079704
H            2.76578444112644        0.23942749504909        1.72840116092915
H            1.44879598989055       -0.70677129404374       -1.41919127492019
H           -1.01913354674112       -0.81437133344630        1.10070138785138
H           -1.85691349689635        2.11651145851274        0.43973254137029
15
 energy: -25.401225583924 gnorm: 0.000806139037 xtb: 6.6.1 (8d0f1dd)
O            2.61088907946485        0.67559965902136        0.88827434170360
O            0.89974367308618        2.47344850763194        1.35724555365584
O           -1.09038499874783        1.84350607507326       -0.06452977631552
O           -1.00897670386134       -0.67065813070367        0.14643796428887
O            1.39927956218676       -1.03799545702257       -0.51767431087599
H            2.00786110374129       -0.17880426059431        0.17958601973061
H            1.74552532070033        1.56579339125359        1.12001660957639
H           -0.08733053882009        2.14979385287803        0.63885448739975
H           -1.06670810611956        0.58233921197313        0.00103329278209
H            0.18854486347657       -0.88561080322641       -0.19227242978876
H            1.26241495048587        3.25701548560666        0.93797884584781
H            2.76311312897725        0.24006916664299        1.73006082875103
H            1.45133029759675       -0.70744081762744       -1.41754211353527
H           -1.02159960947754       -0.81710079131851        1.09601541208808
H           -1.85623590969076        2.11441749841981        0.44730351169507
15
 energy: -25.401551089164 gnorm: 0.000648958849 xtb: 6.6.1 (8d0f1dd)
O            2.60889527132661        0.67543878942976        0.88872928254415
O            0.90087013147765        2.47348655071469        1.35431825353218
O           -1.09039500352231        1.84288005160949       -0.06103713689286
O           -1.00785364588998       -0.66920845421914        0.14344751556556
O            1.39903121167334       -1.03683090035107       -0.51572879145532
H            2.00683086405221       -0.17844401370822        0.18089099835030
H            1.74525693602648        1.56585946203784        1.11893561145653
H           -0.08680678843948        2.14950118185996        0.63916593766663
H           -1.06595227752596        0.58287594559489        0.00155541218551
H            0.18901475252029       -0.88397297386422       -0.19284399128607
H            1.26333275795997        3.25627177781705        0.93336869821289
H            2.76106314104553        0.24072377706465        1.73097185878633
H            1.45304558083729       -0.70790298052500       -1.41609849737458
H           -1.02345414148041       -0.81902758666389        1.09246961630522
H           -1.85541267706250        2.11272196121108        0.45264346940711
15
 energy: -25.401856388767 gnorm: 0.000644694910 xtb: 6.6.1 (8d0f1dd)
O            2.60697381037644        0.67523522072259        0.88922345355987
O            0.90192031375563        2.47348711298435        1.35148105051104
O           -1.09031293988656        1.84221217408218       -0.05775913032999
O           -1.00674468155049       -0.66783917940971        0.14071297722289
O            1.39876290428766       -1.03558676593543       -0.51393851086307
H            2.00583710625627       -0.17805473523173        0.18211559033926
H            1.74499039004776        1.56588513022560        1.11793608703828
H           -0.08630241824311        2.14915573902733        0.63942018438883
H           -1.06520329450204        0.58334380396169        0.00210201519559
H            0.18948258997209       -0.88237681882239       -0.19334424872496
H            1.26419819166921        3.25551272634833        0.92892397694529
H            2.75902643680144        0.24125703245282        1.73188692769726
H            1.45454630125537       -0.70812107794375       -1.41475795373992
H           -1.02513624845930       -0.82084146373807        1.08919189555008
H           -1.85457234878164        2.11110368928405        0.45759392221313
15
 energy: -25.402142562696 gnorm: 0.000559962763 xtb: 6.6.1 (8d0f1dd)
O            2.60509390369815        0.67511086448759        0.88948453631860
O            0.90268348286615        2.47312878291597        1.34913888507931
O           -1.08987834299614        1.84143777946909       -0.05516035392233
O           -1.00561777313077       -0.66656571041919        0.13860900767425
O            1.39837091729750       -1.03429624000408       -0.51236623840085
H            2.00481172083285       -0.17760297946915        0.18309133658316
H            1.74460871625716        1.56578309175846        1.11705581347088
H           -0.08578547637904        2.14866544898274        0.63961722616960
H           -1.06434750429276        0.58368131188075        0.00270865040703
H            0.18988409070380       -0.88091307143275       -0.19361110381304
H            1.26478325611569        3.25467926189280        0.92550265441014
H            2.75731471568290        0.24174281327192        1.73245697508927
H            1.45553258831738       -0.70808202638748       -1.41357943386069
H           -1.02631672871880       -0.82217446531272        1.08663643913337
H           -1.85367145325534        2.10977772637391        0.46120384266491
15
 energy: -25.402411769217 gnorm: 0.000950691598 xtb: 6.6.1 (8d0f1dd)
O            2.60322387970529        0.67424832410743        0.89215569124868