15
 energy: -25.406209790947 gnorm: 0.005920007240 xtb: 6.6.1 (8d0f1dd)
O            2.54875169607889        0.66145549573471        0.92858103437830
O            0.94722590799903        2.49210497311524        1.24396414143104
O           -1.09413418751714        1.81832351372971        0.06306167228181
O           -0.97428953289739       -0.63002939940572        0.05215778939035
O            1.39427806786646       -0.98912304280999       -0.47050448344307
H            1.97878595132300       -0.16462772212146        0.22671258539449
H            1.74075072643442        1.57128697275904        1.08963447403295
H           -0.06992674673763        2.14565816009060        0.65321348667090
H           -1.04759480334358        0.59490923875624        0.03190488547235
H            0.20372617987291       -0.83240359550516       -0.21702856998532
H            1.30445558202685        3.22315388743853        0.73297546099171
H            2.66876464302607        0.24714054549226        1.78697194179422
H            1.50520179185280       -0.68958868700283       -1.37656638846858
H           -1.08009298520837       -0.89784230666301        0.96964178878713
H           -1.82843617777757        2.05395455439818        0.63606841827522
15
 energy: -25.406192179675 gnorm: 0.036245589875 xtb: 6.6.1 (8d0f1dd)
O            2.54878403745886        0.66164164443781        0.92870057120799
O            0.94720263001259        2.49213615552762        1.24396936010247
O           -1.09406619359183        1.81851413276074        0.06310727225543
O           -0.97435681454495       -0.62999926939361        0.05217226306065
O            1.39423171849459       -0.98901085037236       -0.47038995553838
H            1.97858984951553       -0.16489058422346        0.22649229927405
H            1.74082127673907        1.57120085373337        1.08961221332511
H           -0.07000468231428        2.14564986580008        0.65322142613034
H           -1.04757421412176        0.59471593549580        0.03189792200749
H            0.20395393692336       -0.83244011004851       -0.21708300976546
H            1.30444441679015        3.22315427427754        0.73296423336535
H            2.66875482383306        0.24716062593555        1.78698258930149
H            1.50519524919218       -0.68959431024008       -1.37656266999360
H           -1.08008089134358       -0.89785537001548        0.96963967439433
H           -1.82842903004426        2.05398959433131        0.63606404787625
15
 energy: -25.406210191237 gnorm: 0.002209449048 xtb: 6.6.1 (8d0f1dd)
O            2.54875860679471        0.66147776588855        0.92859641231274
O            0.94721391978064        2.49209406875634        1.24395158468912
O           -1.09410761739847        1.81839597165833        0.06307440045336
O           -0.97427082854685       -0.63009020591837        0.05215450920499
O            1.39424126406154       -0.98910675965660       -0.47048687075470
H            1.97874320599842       -0.16466463562630        0.22667521726922
H            1.74075051304868        1.57128916509890        1.08963887224459
H           -0.06993894756119        2.14566642546439        0.65324211067424
H           -1.04758660075141        0.59489028209908        0.03190011143336
H            0.20377563192428       -0.83241302326088       -0.21704158134984
H            1.30444778009874        3.22315099877062        0.73296504954746
H            2.66875922199715        0.24714956360619        1.78697838717754
H            1.50519258929947       -0.68959208746424       -1.37656379966894
H           -1.08008365362166       -0.89785679466273        0.96964131187196
H           -1.82842897212530        2.05398185325305        0.63606252189841
15
 energy: -25.406208984211 gnorm: 0.008794339119 xtb: 6.6.1 (8d0f1dd)
O            2.54872267032329        0.66147696933948        0.92857690693112
O            0.94722666970320        2.49212451821410        1.24397491850999
O           -1.09413817345298        1.81831849782199        0.06305586288867
O           -0.97430253829633       -0.62997618144405        0.05215839912695
O            1.39432344177032       -0.98911922712240       -0.47052340104793
H            1.97876916411687       -0.16467043389742        0.22672285236816
H            1.74081182106996        1.57121495726940        1.08960147335652
H           -0.06994765248241        2.14565912662027        0.65318194612472
H           -1.04757829670732        0.59482106183658        0.03189661613735
H            0.20370595843463       -0.83240677895456       -0.21700899747801
H            1.30445436464664        3.22315845533852        0.73299799957854
H            2.66876895950861        0.24717489880676        1.78698772826709
H            1.50519226308227       -0.68953920962719       -1.37656158792054
H           -1.08011471834949       -0.89781968696323        0.96964983345824
H           -1.82842782036851        2.05395562076808        0.63607768670263
15
 energy: -25.406210079907 gnorm: 0.003260385324 xtb: 6.6.1 (8d0f1dd)
O            2.54875842347408        0.66146120755954        0.92858704404066
O            0.94724191255853        2.49209122923820        1.24396465396934
O           -1.09413471245184        1.81830571777496        0.06305471937010
O           -0.97431700277518       -0.63002043735634        0.05216624873046
O            1.39428226649642       -0.98910793750926       -0.47050510579912
H            1.97874435521704       -0.16469820582615        0.22669346983043
H            1.74075344539650        1.57128175254492        1.08961499957392
H           -0.06993764709736        2.14566364990827        0.65319600234393
H           -1.04758525065311        0.59488491387402        0.03190051202914
H            0.20378529395251       -0.83241961687742       -0.21703038385412
H            1.30445142630590        3.22315843423630        0.73299521750897
H            2.66876624788817        0.24717566235725        1.78698954330199
H            1.50518907265997       -0.68954363277497       -1.37656260781646
H           -1.08010760966649       -0.89782784069681        0.96964989142912
H           -1.82842410830640        2.05396769155383        0.63607403234513
15
 energy: -25.406208991978 gnorm: 0.006428100415 xtb: 6.6.1 (8d0f1dd)
O            2.54876365621039        0.66148824235182        0.92861183070989
O            0.94716541611313        2.49209178362994        1.24393017113987
O           -1.09406626938006        1.81848205844649        0.06308904235447
O           -0.97420183021958       -0.63017907833975        0.05214684285268
O            1.39419710138661       -0.98911550685076       -0.47048916993990
H            1.97872813870031       -0.16465417766913        0.22665711144949
H            1.74076543320800        1.57128050583712        1.08964818286669
H           -0.06993355722718        2.14566699727105        0.65327422605085
H           -1.04760452679982        0.59487063578850        0.03190986797133
H            0.20375268350347       -0.83240616007311       -0.21705715714924
H            1.30443199918552        3.22315341480235        0.73295641888518
H            2.66874765978208        0.24715204060211        1.78698794156740
H            1.50518507970876       -0.68960447363895       -1.37656683718858
H           -1.08005355666875       -0.89788362445830        0.96964564570637
H           -1.82841131450412        2.05402993030695        0.63604411972699
