      -----------------------------------------------------------      
     |                   =====================                   |     
     |                           x T B                           |     
     |                   =====================                   |     
     |                         S. Grimme                         |     
     |          Mulliken Center for Theoretical Chemistry        |     
     |                    University of Bonn                     |     
      -----------------------------------------------------------      

   * xtb version 6.6.1 (8d0f1dd) compiled by 'stahn@M-Bot' on 2023-08-01

   xtb is free software: you can redistribute it and/or modify it under
   the terms of the GNU Lesser General Public License as published by
   the Free Software Foundation, either version 3 of the License, or
   (at your option) any later version.
   
   xtb is distributed in the hope that it will be useful,
   but WITHOUT ANY WARRANTY; without even the implied warranty of
   MERCHANTABILITY or FITNESS FOR A PARTICULAR PURPOSE.  See the
   GNU Lesser General Public License for more details.
   
   Cite this work as:
   * C. Bannwarth, E. Caldeweyher, S. Ehlert, A. Hansen, P. Pracht,
     J. Seibert, S. Spicher, S. Grimme, WIREs Comput. Mol. Sci., 2020, 11,
     e01493. DOI: 10.1002/wcms.1493
   
   for GFN2-xTB:
   * C. Bannwarth, S. Ehlert and S. Grimme., J. Chem. Theory Comput., 2019,
     15, 1652-1671. DOI: 10.1021/acs.jctc.8b01176
   for GFN1-xTB:
   * S. Grimme, C. Bannwarth, P. Shushkov, J. Chem. Theory Comput., 2017,
     13, 1989-2009. DOI: 10.1021/acs.jctc.7b00118
   for GFN0-xTB:
   * P. Pracht, E. Caldeweyher, S. Ehlert, S. Grimme, ChemRxiv, 2019, preprint.
     DOI: 10.26434/chemrxiv.8326202.v1
   for GFN-FF:
   * S. Spicher and S. Grimme, Angew. Chem. Int. Ed., 2020, 59, 15665-15673.
     DOI: 10.1002/anie.202004239
   
   for ALPB and GBSA implicit solvation:
   * S. Ehlert, M. Stahn, S. Spicher, S. Grimme, J. Chem. Theory Comput.,
     2021, 17, 4250-4261. DOI: 10.1021/acs.jctc.1c00471
   
   for DFT-D4:
   * E. Caldeweyher, C. Bannwarth and S. Grimme, J. Chem. Phys., 2017,
     147, 034112. DOI: 10.1063/1.4993215
   * E. Caldeweyher, S. Ehlert, A. Hansen, H. Neugebauer, S. Spicher,
     C. Bannwarth and S. Grimme, J. Chem. Phys., 2019, 150, 154122.
     DOI: 10.1063/1.5090222
   * E. Caldeweyher, J.-M. Mewes, S. Ehlert and S. Grimme, Phys. Chem. Chem. Phys.
     2020, 22, 8499-8512. DOI: 10.1039/D0CP00502A
   
   for sTDA-xTB:
   * S. Grimme and C. Bannwarth, J. Chem. Phys., 2016, 145, 054103.
     DOI: 10.1063/1.4959605
   
   in the mass-spec context:
   * V. Asgeirsson, C. Bauer and S. Grimme, Chem. Sci., 2017, 8, 4879.
     DOI: 10.1039/c7sc00601b
   * J. Koopman and S. Grimme, ACS Omega 2019, 4, 12, 15120-15133.
     DOI: 10.1021/acsomega.9b02011
   
   for metadynamics refer to:
   * S. Grimme, J. Chem. Theory Comput., 2019, 155, 2847-2862
     DOI: 10.1021/acs.jctc.9b00143
   
   for SPH calculations refer to:
   * S. Spicher and S. Grimme, J. Chem. Theory Comput., 2021, 17, 1701-1714
     DOI: 10.1021/acs.jctc.0c01306
   
   with help from (in alphabetical order)
   P. Atkinson, C. Bannwarth, F. Bohle, G. Brandenburg, E. Caldeweyher
   M. Checinski, S. Dohm, S. Ehlert, S. Ehrlich, I. Gerasimov, C. Hölzer
   A. Katbashev, J. Koopman, C. Lavigne, S. Lehtola, F. März, M. Müller,
   F. Musil, H. Neugebauer, J. Pisarek, C. Plett, P. Pracht, F. Pultar,
   J. Seibert, P. Shushkov, S. Spicher, M. Stahn, M. Steiner, T. Strunk,
   J. Stückrath, T. Rose, and J. Unsleber
   
 * started run on 2024/02/16 at 15:34:34.773     

           -------------------------------------------------
          |                Calculation Setup                |
           -------------------------------------------------

          program call               : xtb xtbopt.xyz -I control --alpb water --opt --tight
          coordinate file            : xtbopt.xyz
          omp threads                :                     2

   ID    Z sym.   atoms
    1    8 O      1-5
    2    1 H      6-15
constraining bond 1 7 to    1.2274063 Å, actual value:    1.2274353 Å
constraining bond 7 2 to    1.2253324 Å, actual value:    1.2253185 Å
constraining bond 2 8 to    1.2262205 Å, actual value:    1.2262184 Å
constraining bond 8 3 to    1.2265239 Å, actual value:    1.2265514 Å
constraining bond 3 9 to    1.2247532 Å, actual value:    1.2246956 Å
constraining bond 9 4 to    1.2272848 Å, actual value:    1.2272974 Å
constraining bond 4 10 to    1.2252424 Å, actual value:    1.2252093 Å
constraining bond 10 5 to    1.2272365 Å, actual value:    1.2272836 Å
constraining bond 5 6 to    1.2277611 Å, actual value:    1.2278249 Å
constraining bond 6 1 to    1.2247765 Å, actual value:    1.2247016 Å

molecular fragmentation (1/2 indicates fragments):
122221122222222
# atoms in fragment 1/2:     3    12
 fragment masses (1/2) :       18.02       72.06
CMA distance (Bohr)    :   4.680
constraining FC (au)   :  6.0000
########################################################################
[WARNING] Please study the warnings concerning your input carefully
-1- prog_main_parseArguments: Unknown option '--tight' provided
########################################################################

           -------------------------------------------------
          |                 G F N 2 - x T B                 |
           -------------------------------------------------

        Reference                      10.1021/acs.jctc.8b01176
      * Hamiltonian:
        H0-scaling (s, p, d)           1.850000    2.230000    2.230000
        zeta-weighting                 0.500000
      * Dispersion:
        s8                             2.700000
        a1                             0.520000
        a2                             5.000000
        s9                             5.000000
      * Repulsion:
        kExp                           1.500000    1.000000
        rExp                           1.000000
      * Coulomb:
        alpha                          2.000000
        third order                    shell-resolved
        anisotropic                    true
        a3                             3.000000
        a5                             4.000000
        cn-shift                       1.200000
        cn-exp                         4.000000
        max-rad                        5.000000

      * Solvation model:               ALPB
        Solvent                        water
        Parameter file                 internal GFN2-xTB/ALPB
        Dielectric constant                8.0200E+01
        Reference state                gsolv [1 M gas/solution]
        Free energy shift                  1.0808E-03 Eh       6.7819E-01 kcal/mol
        Temperature                        2.9815E+02 K
        Density                            1.0000E+00 kg/L
        Solvent mass                       1.8000E+01 g/mol
        Interaction kernel             P16
        Born radius scaling (c1)           1.4744E+00
        Born radii integrator          GBOBC
        Born offset                        0.0000E+00 a0       0.0000E+00 AA
        H-bond correction              true
        Ion screening                  false
        Surface tension                    1.0000E-05 Eh       1.5569E+01 dyn/cm
        Grid points                               230 per atom
q/qsh data taken from xtbrestart
CAMM data taken from xtbrestart

          ...................................................
          :                      SETUP                      :
          :.................................................:
          :  # basis functions                  30          :
          :  # atomic orbitals                  30          :
          :  # shells                           20          :
          :  # electrons                        40          :
          :  max. iterations                   250          :
          :  Hamiltonian                  GFN2-xTB          :
          :  restarted?                       true          :
          :  GBSA solvation                   true          :
          :  PC potential                    false          :
          :  electronic temp.          300.0000000     K    :
          :  accuracy                    1.0000000          :
          :  -> integral cutoff          0.2500000E+02      :
          :  -> integral neglect         0.1000000E-07      :
          :  -> SCF convergence          0.1000000E-05 Eh   :
          :  -> wf. convergence          0.1000000E-03 e    :
          :  Broyden damping             0.4000000          :
          ...................................................

 iter      E             dE          RMSdq      gap      omega  full diag
   1    -25.5042840 -0.255043E+02  0.189E-08   10.30       0.0  T
   2    -25.5042840 -0.248690E-13  0.123E-08   10.30  100000.0  T
   3    -25.5042840  0.355271E-14  0.263E-09   10.30  100000.0  T

   *** convergence criteria satisfied after 3 iterations ***

         #    Occupation            Energy/Eh            Energy/eV
      -------------------------------------------------------------
         1        2.0000           -0.6616524             -18.0045
       ...           ...                  ...                  ...
        14        2.0000           -0.4829187             -13.1409
        15        2.0000           -0.4724588             -12.8563
        16        2.0000           -0.4151552             -11.2969
        17        2.0000           -0.4133444             -11.2477
        18        2.0000           -0.4128781             -11.2350
        19        2.0000           -0.4119874             -11.2107
        20        2.0000           -0.4027024             -10.9581 (HOMO)
        21                         -0.0240482              -0.6544 (LUMO)
        22                          0.0609226               1.6578
        23                          0.0632918               1.7223
        24                          0.1849640               5.0331
        25                          0.1853066               5.0424
       ...                                ...                  ...
        30                          0.2859371               7.7807
      -------------------------------------------------------------
                  HL-Gap            0.3786543 Eh           10.3037 eV
             Fermi-level           -0.2133753 Eh           -5.8062 eV

 SCC (total)                   0 d,  0 h,  0 min,  0.025 sec
 SCC setup                      ...        0 min,  0.003 sec ( 10.897%)
 Dispersion                     ...        0 min,  0.000 sec (  1.308%)
 classical contributions        ...        0 min,  0.000 sec (  0.483%)
 integral evaluation            ...        0 min,  0.003 sec ( 10.490%)
 iterations                     ...        0 min,  0.008 sec ( 31.661%)
 molecular gradient             ...        0 min,  0.007 sec ( 28.030%)
 printout                       ...        0 min,  0.004 sec ( 16.978%)

         :::::::::::::::::::::::::::::::::::::::::::::::::::::
         ::                     SUMMARY                     ::
         :::::::::::::::::::::::::::::::::::::::::::::::::::::
         :: total energy             -25.406209790947 Eh    ::
         :: total w/o Gsasa/hb       -25.378966438820 Eh    ::
         :: gradient norm              0.005920007232 Eh/a0 ::
         :: HOMO-LUMO gap             10.303706914663 eV    ::
         ::.................................................::
         :: SCC energy               -25.504283976465 Eh    ::
         :: -> isotropic ES            0.201667182719 Eh    ::
         :: -> anisotropic ES         -0.021728648106 Eh    ::
         :: -> anisotropic XC         -0.001117442254 Eh    ::
         :: -> dispersion             -0.005090091467 Eh    ::
         :: -> Gsolv                  -0.046650171286 Eh    ::
         ::    -> Gelec               -0.019406819160 Eh    ::
         ::    -> Gsasa                0.004795556111 Eh    ::
         ::    -> Ghb                 -0.033119667936 Eh    ::
         ::    -> Gshift               0.001080759698 Eh    ::
         :: repulsion energy           0.098045725663 Eh    ::
         :: add. restraining           0.000000390882 Eh    ::
         :: total charge               0.000000000000 e     ::
         :::::::::::::::::::::::::::::::::::::::::::::::::::::

      ----------------------------------------------------------- 
     |                   =====================                   |
     |                        A N C O P T                        |
     |                   =====================                   |
     |               Approximate Normal Coordinate               |
     |                Rational Function Optimizer                |
      ----------------------------------------------------------- 

          ...................................................
          :                      SETUP                      :
          :.................................................:
          :   optimization level            normal          :
          :   max. optcycles                   200          :
          :   ANC micro-cycles                  20          :
          :   degrees of freedom                39          :
          :.................................................:
          :   RF solver                   davidson          :
          :   write xtbopt.log                true          :
          :   linear?                        false          :
          :   energy convergence         0.5000000E-05 Eh   :
          :   grad. convergence          0.1000000E-02 Eh/α :
          :   maxmium RF displ.          1.0000000          :
          :   Hlow (freq-cutoff)         0.1000000E-01      :
          :   Hmax (freq-cutoff)         5.0000000          :
          :   S6 in model hess.         20.0000000          :
          ...................................................

generating ANC from model Hessian ...
Using Lindh-Hessian (1995)
 Shifting diagonal of input Hessian by   9.298618463805027E-003
 Lowest  eigenvalues of input Hessian
    0.000000    0.000000    0.000000    0.000000    0.000000    0.000000
    0.010000    0.010032    0.011027    0.011498    0.011726    0.013712
    0.016688    0.018472    0.025435    0.043744    0.050679    0.061298
 Highest eigenvalues
   14.876719   34.393761   34.672977   38.059884   38.204354   39.963170
 

........................................................................
.............................. CYCLE    1 ..............................
........................................................................

 iter      E             dE          RMSdq      gap      omega  full diag
   1    -25.5042840 -0.255043E+02  0.654E-10   10.30       0.0  T
   2    -25.5042840  0.390799E-13  0.405E-10   10.30  100000.0  T
   3    -25.5042840 -0.355271E-14  0.959E-11   10.30  100000.0  T
     SCC iter.                  ...        0 min,  0.008 sec
     gradient                   ...        0 min,  0.010 sec
 * total energy  :   -25.4062098 Eh     change       -0.3552714E-14 Eh
   gradient norm :     0.0059196 Eh/α   predicted     0.0000000E+00 (-100.00%)
   displ. norm   :     0.0011949 α      lambda       -0.7007204E-05
   maximum displ.:     0.0008346 α      in ANC's #38, #39, #36, ...

........................................................................
.............................. CYCLE    2 ..............................
........................................................................

 iter      E             dE          RMSdq      gap      omega  full diag
   1    -25.5042848 -0.255043E+02  0.244E-03   10.30       0.0  T
   2    -25.5042848 -0.415043E-07  0.105E-03   10.30      24.5  T
   3    -25.5042848 -0.623460E-08  0.610E-04   10.30      42.3  T
   4    -25.5042848 -0.837030E-09  0.104E-04   10.30     247.9  T
     SCC iter.                  ...        0 min,  0.009 sec
     gradient                   ...        0 min,  0.010 sec
 * total energy  :   -25.4061922 Eh     change        0.1761127E-04 Eh
   gradient norm :     0.0362455 Eh/α   predicted    -0.3505217E-05 (-119.90%)
   displ. norm   :     0.0010064 α      lambda       -0.3639316E-04
   maximum displ.:     0.0007435 α      in ANC's #38, #39, #36, ...

........................................................................
.............................. CYCLE    3 ..............................
........................................................................

 iter      E             dE          RMSdq      gap      omega  full diag
   1    -25.5042844 -0.255043E+02  0.208E-03   10.30       0.0  T
   2    -25.5042845 -0.298769E-07  0.901E-04   10.30      28.7  T
   3    -25.5042845 -0.453968E-08  0.523E-04   10.30      49.4  T
     SCC iter.                  ...        0 min,  0.008 sec
     gradient                   ...        0 min,  0.009 sec
 * total energy  :   -25.4062102 Eh     change       -0.1801156E-04 Eh
   gradient norm :     0.0022084 Eh/α   predicted    -0.1819605E-04 (   1.02%)
   displ. norm   :     0.0004972 α      lambda       -0.9558263E-06
   maximum displ.:     0.0003318 α      in ANC's #34, #36, #37, ...

........................................................................
.............................. CYCLE    4 ..............................
........................................................................

 iter      E             dE          RMSdq      gap      omega  full diag
   1    -25.5042838 -0.255043E+02  0.866E-04   10.30       0.0  T
   2    -25.5042838 -0.433567E-08  0.391E-04   10.30      66.1  T
   3    -25.5042838 -0.605866E-09  0.204E-04   10.30     126.5  T
     SCC iter.                  ...        0 min,  0.008 sec
     gradient                   ...        0 min,  0.010 sec
 * total energy  :   -25.4062090 Eh     change        0.1207025E-05 Eh
   gradient norm :     0.0087941 Eh/α   predicted    -0.4771984E-06 (-139.54%)
   displ. norm   :     0.0003255 α      lambda       -0.2806327E-05
   maximum displ.:     0.0002084 α      in ANC's #36, #37, #38, ...

........................................................................
.............................. CYCLE    5 ..............................
........................................................................

 iter      E             dE          RMSdq      gap      omega  full diag
   1    -25.5042842 -0.255043E+02  0.815E-04   10.30       0.0  T
   2    -25.5042842 -0.476163E-08  0.313E-04   10.30      82.6  T
   3    -25.5042842 -0.578044E-09  0.170E-04   10.30     151.8  T
     SCC iter.                  ...        0 min,  0.007 sec
     gradient                   ...        0 min,  0.010 sec
 * total energy  :   -25.4062101 Eh     change       -0.1095696E-05 Eh
   gradient norm :     0.0032597 Eh/α   predicted    -0.1403409E-05 (  28.08%)
   displ. norm   :     0.0006623 α      lambda       -0.1457992E-05
   maximum displ.:     0.0005445 α      in ANC's #34, #5, #6, ...

........................................................................
.............................. CYCLE    6 ..............................
........................................................................

 iter      E             dE          RMSdq      gap      omega  full diag
   1    -25.5042850 -0.255043E+02  0.835E-04   10.30       0.0  T
   2    -25.5042850 -0.817163E-09  0.502E-04   10.30      51.5  T
   3    -25.5042850 -0.241855E-09  0.124E-04   10.30     207.4  T
     SCC iter.                  ...        0 min,  0.007 sec
     gradient                   ...        0 min,  0.011 sec
 * total energy  :   -25.4062090 Eh     change        0.1087929E-05 Eh
   gradient norm :     0.0064278 Eh/α   predicted    -0.7281931E-06 (-166.93%)
   displ. norm   :     0.0004683 α      lambda       -0.2670393E-05
   maximum displ.:     0.0004010 α      in ANC's #34, #6, #30, ...

........................................................................
.............................. CYCLE    7 ..............................
........................................................................

 iter      E             dE          RMSdq      gap      omega  full diag
   1    -25.5042843 -0.255043E+02  0.578E-04   10.30       0.0  T
   2    -25.5042843 -0.271140E-09  0.353E-04   10.30      73.1  T
   3    -25.5042843 -0.117581E-09  0.697E-05   10.30     370.3  T
     SCC iter.                  ...        0 min,  0.008 sec
