12
 energy: -16.895891347777 gnorm: 0.000308955688 xtb: 6.6.1 (8d0f1dd)
C            0.32855351095476       -1.12814219250381       -0.28559787749795
H            0.78681135706745       -0.25047345878615       -0.71537471662371
H           -1.26556873558774       -2.18625277991820       -0.33815275558659
H            0.63383316183639       -1.46313178621569        0.69394206320918
O           -0.68095474537605        0.40228594093492        1.06616353865167
H           -0.22397388848011        0.86396611103124        1.77772638143097
H           -1.24864906435256        1.04638432814581        0.62939093799839
N            1.69885580757500       -2.36909657763570       -1.21428852449263
H            1.65563326154136       -3.29704519978256       -0.81482479172559
H            1.44535237947322       -2.38212759256774       -2.19382194640687
H            2.61309757180417       -1.95882214477272       -1.07895603476154
O           -0.78826689945832       -1.47975986492895       -0.81183751519696
12
 energy: -16.895203549299 gnorm: 0.000609535714 xtb: 6.6.1 (8d0f1dd)
C            0.32269101146920       -1.12368720455343       -0.28146647305003
H            0.78520158288460       -0.24991489163248       -0.71453820623496
H           -1.26824860935279       -2.18555717762096       -0.33748133208421
H            0.63199583034581       -1.46336445226999        0.69512841046856
O           -0.68084368020852        0.39932525449739        1.06491453577959
H           -0.21867015341862        0.86260102559704        1.77211017520743
H           -1.24854165251349        1.04431036034303        0.62923275285911
N            1.70096891334759       -2.36892093067387       -1.21431299813325
H            1.65711951104400       -3.29745477259631       -0.81656144795294
H            1.44840423074991       -2.38112604443992       -2.19397523145826
H            2.61560414127522       -1.96015501888637       -1.07846830499943
O           -0.79095740862532       -1.47827136476366       -0.81021312140323
12
 energy: -16.894470455994 gnorm: 0.000853498279 xtb: 6.6.1 (8d0f1dd)
C            0.31433758439197       -1.11896584424061       -0.27498126100650
H            0.78118883117286       -0.24920855369140       -0.71130044628195
H           -1.27391357759183       -2.18465656706798       -0.33629215638941
H            0.62751442485468       -1.46528988693266        0.69792418135704
O           -0.68553719605383        0.39414630726324        1.06700825379968
H           -0.20380380684930        0.86062502572231        1.75904166744189
H           -1.24601559389199        1.04148951944451        0.62541164343112
N            1.70261940259959       -2.36706536510226       -1.21348269019323
H            1.66105908652222       -3.29804793536080       -0.82104539495603
H            1.45432838362796       -2.37755813723358       -2.19422058047304
H            2.61802120865730       -1.96035885054184       -1.07591932019268
O           -0.79507503044206       -1.47732492925845       -0.80777513753851
12
 energy: -16.893794249561 gnorm: 0.000664985972 xtb: 6.6.1 (8d0f1dd)
C            0.30256334190557       -1.11720797309671       -0.26807279756615
H            0.77471969761083       -0.25001466391250       -0.70341480311682
H           -1.27975039197599       -2.18990690834206       -0.34628782659959
H            0.61530348447214       -1.47288358030203        0.70151327372557
O           -0.68183070999792        0.39034022056931        1.07412863584195
H           -0.15906717730523        0.88012430265725        1.71847705481897
H           -1.26549836791289        1.02347106723341        0.64130406586925
N            1.70442142364043       -2.36464446935297       -1.21063751818895
H            1.65857581767221       -3.30024627033718       -0.83043112104626
H            1.46796569227885       -2.36341072529429       -2.19407098585809
H            2.61818358881275       -1.96014316690788       -1.05770493314216
O           -0.80086268220318       -1.47769304991381       -0.81043428573933
12
 energy: -16.893153624617 gnorm: 0.000449290710 xtb: 6.6.1 (8d0f1dd)
C            0.29675105142743       -1.11172892985869       -0.26325170180231
H            0.77331742056927       -0.24843932099438       -0.70146056992358
H           -1.28363501077407       -2.18667977568561       -0.34502353856794
H            0.61400486989006       -1.47374291621956        0.70251137322861
O           -0.68404173569943        0.38588557280942        1.07578034154295
H           -0.15411275686567        0.87825163620546        1.71253127801204
H           -1.26314218142339        1.01876552866226        0.63663962161275
N            1.70612363136724       -2.36449600694626       -1.21022072091288
H            1.66251542354616       -3.30103328780797       -0.83214580768637
H            1.47009497008595       -2.36356750398255       -2.19376843868109
H            2.62068433396077       -1.96122370368639       -1.05913180404534
O           -0.80383629908676       -1.47420650949518       -0.80809127377843
12
 energy: -16.892555708378 gnorm: 0.000462996503 xtb: 6.6.1 (8d0f1dd)
C            0.29099124482966       -1.10685362875303       -0.25756402127313
H            0.77216446962990       -0.24732984231423       -0.69807007404460
H           -1.28679908276396       -2.18470011014393       -0.34497242667595
H            0.61155317324563       -1.47523098479868        0.70462737291503
O           -0.68639768299587        0.38174161218022        1.07772613445464
H           -0.14758069042644        0.87674008369768        1.70504418733936
H           -1.26056166673861        1.01467859489027        0.63195357532782
N            1.70739256196420       -2.36392192087223       -1.21021166789356
H            1.66608555093741       -3.30108578015901       -0.83355342088336
H            1.47171424482123       -2.36361452324643       -2.19375256889985
H            2.62228595690500       -1.96103724179398       -1.06047736484431
O           -0.80612436241057       -1.47160147568609       -0.80638096652369
12
 energy: -16.891997574298 gnorm: 0.000468465592 xtb: 6.6.1 (8d0f1dd)
C            0.28502412726060       -1.10235254854341       -0.25216883000754
H            0.77070747458298       -0.24637442516870       -0.69454490484141
H           -1.29017948142903       -2.18303998776324       -0.34547127769348
H            0.60864401118194       -1.47717166396398        0.70647303113211
O           -0.68836043628348        0.37808476754766        1.07939490661676
H           -0.14031135037945        0.87505680376644        1.69722460832755
H           -1.25822344006971        1.01115509917756        0.62807528339172
N            1.70882276402518       -2.36330376780637       -1.20976525239537
H            1.67041720681730       -3.30118704796775       -0.83472936785480
H            1.47292487281334       -2.36351460484363       -2.19320109690916
H            2.62395623258047       -1.96041696617088       -1.06190335830351
O           -0.80869826410256       -1.46915087526315       -0.80501498246447
12
 energy: -16.891477897780 gnorm: 0.000442766781 xtb: 6.6.1 (8d0f1dd)
C            0.27913020864769       -1.09815668112534       -0.24677292782967
H            0.76936711967224       -0.24567719744449       -0.69081132130413
H           -1.29355263263603       -2.18157972919440       -0.34643605651922
H            0.60540721589300       -1.47932165512133        0.70843230042381
O           -0.69004629690393        0.37483523662596        1.08096825641903
H           -0.13277559260590        0.87348456857070        1.68926089928959
H           -1.25618733543082        1.00788730877030        0.62470325332620
N            1.71014324192158       -2.36264127128306       -1.20931147605623
H            1.67502037168934       -3.30117574065869       -0.83569308955923
H            1.47398019486129       -2.36362192686110       -2.19263364221172
H            2.62538412652619       -1.95938064536235       -1.06342546379666
O           -0.81114690463708       -1.46686748391564       -0.80391197318336
12
 energy: -16.890994704075 gnorm: 0.000426179794 xtb: 6.6.1 (8d0f1dd)
C            0.27335924585300       -1.09415989658458       -0.24156339283262
H            0.76812679656234       -0.24509827049314       -0.68706689157273
H           -1.29690923920507       -2.18013534357160       -0.34770877375534
H            0.60205465503218       -1.48157962236402        0.71027328095579
O           -0.69147340818928        0.37188614319853        1.08243578739297
H           -0.12525217927718        0.87191372995160        1.68139843437453
H           -1.25447338344015        1.00477381021865        0.62182118646935
N            1.71144144405172       -2.36200573340684       -1.20875637107996
H            1.67987233835516       -3.30112288703273       -0.83637603657073
H            1.47478605462308       -2.36396428866347       -2.19192225001825
H            2.62673786003997       -1.95813662798894       -1.06513362492510
O           -0.81354646740822       -1.46458623026289       -0.80303258943949
12
 energy: -16.890546140436 gnorm: 0.000420893982 xtb: 6.6.1 (8d0f1dd)
C            0.26780086411525       -1.09024615417429       -0.23651703031066
H            0.76705384490887       -0.24449289753301       -0.68326475372243
H           -1.30017776062623       -2.17857004860142       -0.34935456439879
H            0.59873916515591       -1.48390084167223        0.71195894563553
O           -0.69265166875807        0.36904018341364        1.08408701440543
H           -0.11773199701249        0.87069068995674        1.67347418919076
H           -1.25324583765262        1.00123990933355        0.61936355841417
N            1.71265373461579       -2.36139875682698       -1.20816186495248
H            1.68465822320304       -3.30096192030001       -0.83668309246795
H            1.47543221900157       -2.36463436939455       -2.19115989348581
H            2.62800994671940       -1.95684567621651       -1.06699792387261
O           -0.81581701667286       -1.46213533498436       -0.80237582543674
12
 energy: -16.890130136704 gnorm: 0.000484400762 xtb: 6.6.1 (8d0f1dd)
C            0.26253773060319       -1.08646848194970       -0.23174651553321
H            0.76619444240744       -0.24395075460541       -0.67964771175474
H           -1.30317550459538       -2.17708937224751       -0.35121768420195
H            0.59557517435651       -1.48613308274351        0.71346565164480
O           -0.69337179191784        0.36650271119287        1.08560174522159
H           -0.11073803087245        0.86987171346004        1.66602875599511
H           -1.25257580199603        0.99763954872189        0.61750422458459
N            1.71384243327021       -2.36091999687010       -1.20762373460529
H            1.68916738423951       -3.30079856156770       -0.83678003511966
H            1.47595967595949       -2.36552023482495       -2.19042711188166
H            2.62922433299245       -1.95566493599590       -1.06889661628670
O           -0.81791632744954       -1.45968376956944       -0.80189220906445
12
 energy: -16.889744278234 gnorm: 0.000519451006 xtb: 6.6.1 (8d0f1dd)
C            0.25745012741791       -1.08280912775964       -0.22705975423528
H            0.76545621214183       -0.24343595896116       -0.67594333887286
H           -1.30620150075890       -2.17542836797810       -0.35320926506361
H            0.59238983520246       -1.48842320107540        0.71493527008290
O           -0.69396959279299        0.36404759567240        1.08726262511793
H           -0.10374015125031        0.86934104792927        1.65842525363815
H           -1.25223548926879        0.99371478868383        0.61583694014137
N            1.71494500536495       -2.36045889676694       -1.20702725864265
H            1.69377140466375       -3.30068429932636       -0.83686864394360
H            1.47642379182020       -2.36649215456378       -2.18965427317860
H            2.63038214864891       -1.95448568928594       -1.07084293427364
O           -0.81994807419148       -1.45710095356758       -0.80148586177169
12
 energy: -16.889387078067 gnorm: 0.000583313973 xtb: 6.6.1 (8d0f1dd)
C            0.25262564821664       -1.07928313178174       -0.22249200110236
H            0.76495774439288       -0.24297950909021       -0.67218885930001
H           -1.30914032896934       -2.17361585417225       -0.35537052214543
H            0.58924678589117       -1.49076399992678        0.71635602010988
O           -0.69430687636111        0.36172831684628        1.08899093417427
H           -0.09697721791540        0.86927391606906        1.65085434371502
H           -1.25236891915597        0.98943242549917        0.61448101640078
N            1.71598205468508       -2.36007680712142       -1.20644569607065
H            1.69832305271762       -3.30060951737383       -0.83688911488557
H            1.47675793214635       -2.36759764119117       -2.18888316525313
H            2.63146135166312       -1.95333850751934       -1.07285716220855
O           -0.82183751031351       -1.45438490723717       -0.80118703443581
12
 energy: -16.889056672647 gnorm: 0.000629497676 xtb: 6.6.1 (8d0f1dd)
C            0.24807670833336       -1.07586363353737       -0.21805940758031
H            0.76469105780312       -0.24253408626731       -0.66838780889109
H           -1.31196718151383       -2.17163564266979       -0.35771472235043
H            0.58618538369130       -1.49312124946932        0.71770719227506
O           -0.69442981091023        0.35949710647019        1.09079913114907
H           -0.09045737820588        0.86963039137377        1.64329845221906
H           -1.25298913414923        0.98479542422307        0.61346627705704
N            1.71697339205130       -2.35977624783541       -1.20586840124934
H            1.70277442173849       -3.30055560782814       -0.83678422276593
H            1.47692178364219       -2.36885866371493       -2.18808693104514
H            2.63250741706196       -1.95227329745178       -1.07498899851423
O           -0.82356294254502       -1.45151971029237       -0.80101180130533
12
 energy: -16.888750795655 gnorm: 0.000520443921 xtb: 6.6.1 (8d0f1dd)
C            0.24379153312391       -1.07263198757209       -0.21383355630374
H            0.76447067259287       -0.24219526338416       -0.66484819528280
H           -1.31448258364408       -2.16992120790018       -0.35984836986858
H            0.58335878565904       -1.49526863356986        0.71900107886093
O           -0.69450070924524        0.35760137247733        1.09214153591835
H           -0.08479845499399        0.86968355281919        1.63664465170372
H           -1.25349774362267        0.98101412733860        0.61257931662197
N            1.71798217553647       -2.35955052972334       -1.20539815951278
H            1.70697726348108       -3.30051416412463       -0.83669112701483
H            1.47695973777431       -2.37011384568352       -2.18735537673066
H            2.63357140304645       -1.95134156314487       -1.07720685406570
O           -0.82510836271061       -1.44897707453187       -0.80081618532744
12
 energy: -16.888467191934 gnorm: 0.000436601683 xtb: 6.6.1 (8d0f1dd)
C            0.23968395752556       -1.06952638430526       -0.20975980242126
H            0.76419144536142       -0.24191362714594       -0.66155798641649
H           -1.31687935747513       -2.16830967387879       -0.36160937569713
H            0.58073904143191       -1.49720847969416        0.72024631220126
O           -0.69471286459494        0.35588019503451        1.09319882047870
H           -0.07985424130292        0.86924879649215        1.63081004217202
H           -1.25352146901663        0.97789474480790        0.61134600435433
N            1.71895973902571       -2.35933392581547       -1.20495910915871
H            1.71115453309912       -3.30051292415809       -0.83670858182253
H            1.47693290056295       -2.37131717864193       -2.18665370730320
H            2.63463399210969       -1.95046379715514       -1.07949325074884
O           -0.82660395972921       -1.44665296253918       -0.80049060663972
12
 energy: -16.888205035839 gnorm: 0.000694799790 xtb: 6.6.1 (8d0f1dd)
C            0.23569298048599       -1.06724720175760       -0.20536278524240
H            0.76517008912880       -0.24185817879269       -0.65539954825310
H           -1.32020607002369       -2.16550998144096       -0.36729947639013
H            0.57569348272869       -1.50133591068446        0.72210475166720
O           -0.69347873517166        0.35416970248539        1.09505933418327
H           -0.07240524822198        0.87087105167322        1.62244894170398
H           -1.25558545610012        0.97265822457084        0.61213423093736
N            1.72005303374012       -2.35952096687351       -1.20413547315015
H            1.71892592677601       -3.29993431909079       -0.83403056149512
H            1.47402476327622       -2.37526396374588       -2.18475978932332
H            2.63458863811625       -1.94652041162316       -1.08449490190175
O           -0.82774968773710       -1.44272326171980       -0.80189596373739
12
 energy: -16.887960483251 gnorm: 0.000789669581 xtb: 6.6.1 (8d0f1dd)
C            0.23237646755784       -1.06401883349142       -0.20259062790362
H            0.76495689863151       -0.24187728201908       -0.65502280105788
H           -1.32100060513002       -2.16500165664596       -0.36719989778217
H            0.57541437869592       -1.50176849421113        0.72204538852077
O           -0.69349473578852        0.35288183635355        1.09479857271464
H           -0.07166442641195        0.87000950701993        1.62114427021085
H           -1.25487539071983        0.97176748865572        0.61123978237971
N            1.72111814674640       -2.35963400233408       -1.20434887817709
H            1.72013635064989       -3.29997605660686       -0.83425809502567
H            1.47494144659676       -2.37604295135745       -2.18484346037939
H            2.63585506738029       -1.94713939111836       -1.08552475273048
O           -0.82903988121075       -1.44141538124427       -0.80107074177123
12
 energy: -16.887732899915 gnorm: 0.000357315610 xtb: 6.6.1 (8d0f1dd)
C            0.22849242997156       -1.06069263287723       -0.19899302071478
H            0.76388903639857       -0.24090544000844       -0.65238425058055
H           -1.32373063724194       -2.16281416864745       -0.36761287587452
H            0.57320242794468       -1.50270332600657        0.72300735983671
O           -0.69472763461736        0.35104267668778        1.09594136081773
H           -0.06760805747449        0.86737317652086        1.61682924698226
H           -1.25330899092630        0.96936897146436        0.60837424199220
N            1.72186701506262       -2.35920291087119       -1.20364251148385
H            1.72479704691350       -3.30003533173773       -0.83444885970402
H            1.47526102883195       -2.37761586047297       -2.18411204623218
H            2.63726820347806       -1.94680673875367       -1.08821475045178
O           -0.83067815134329       -1.43922363229715       -0.80037513558878
12
 energy: -16.887523717255 gnorm: 0.000776131772 xtb: 6.6.1 (8d0f1dd)
C            0.22548023127179       -1.05778325077236       -0.19642314943849
H            0.76361291597400       -0.24083567609898       -0.65179590014584
H           -1.32450640323752       -2.16233083684236       -0.36763345006281
H            0.57265354998084       -1.50301199540637        0.72312437640320
O           -0.69465363676181        0.34987994959162        1.09564382375763
H           -0.06659175741947        0.86645907216392        1.61542873508112
H           -1.25268289216403        0.96849943328037        0.60750280968911
N            1.72284208867363       -2.35943978971696       -1.20382092575994
H            1.72620047765705       -3.30021657981191       -0.83471457807007
H            1.47592840601361       -2.37827031037048       -2.18412027236642
H            2.63822918664074       -1.94708613134699       -1.08911633596715
O           -0.83178844963126       -1.43807910166891       -0.79970637412191
12
 energy: -16.887329248477 gnorm: 0.000381668181 xtb: 6.6.1 (8d0f1dd)
C            0.22166792942189       -1.05497484837881       -0.19307966122948
H            0.76258161912928       -0.24024713351828       -0.64914562411672
H           -1.32737574979398       -2.16036118711393       -0.36838074931712
H            0.57006890902635       -1.50425030587066        0.72406125832760
O           -0.69548716087385        0.34841020447043        1.09654764413853
H           -0.06223963742315        0.86389886279809        1.61115482138919
H           -1.25124695382042        0.96656034968220        0.60516290938952
N            1.72364150495305       -2.35899807821707       -1.20306137546643
H            1.73119293212848       -3.30015839748547       -0.83466526879632
H            1.47604555287517       -2.37985181340834       -2.18325625636917
H            2.63936961306398       -1.94612044303827       -1.09171357843243
O           -0.83349484168922       -1.43612242691931       -0.79925536051875
12
 energy: -16.887150413749 gnorm: 0.000691218080 xtb: 6.6.1 (8d0f1dd)
C            0.21887131364636       -1.05226785454258       -0.19068640354733
H            0.76231529367100       -0.24020542838898       -0.64858889224348
H           -1.32810336565419       -2.15990446071420       -0.36842491991963
H            0.56953744437345       -1.50454325530545        0.72413833381881
O           -0.69544751795275        0.34734461249747        1.09628742122357
H           -0.06126087066543        0.86298859679817        1.60984642554532
H           -1.25063484824328        0.96581608442131        0.60436897394292
N            1.72451302161581       -2.35922366652721       -1.20320917471236
H            1.73258761564211       -3.30032985530891       -0.83488973988068
H            1.47665494310148       -2.38051381521982       -2.18325063265711
H            2.64020118796726       -1.94630308660275       -1.09256073002023
O           -0.83451050050426       -1.43507308810648       -0.79866190255137
12
 energy: -16.886984145721 gnorm: 0.000308599502 xtb: 6.6.1 (8d0f1dd)
C            0.21531323233667       -1.04972938961790       -0.18769015294019
H            0.76131522821925       -0.23974808124298       -0.64625928298333
H           -1.33078871428057       -2.15812726373229       -0.36913256872855
H            0.56709363457867       -1.50567910194748        0.72491123635452
O           -0.69613374841596        0.34611589193922        1.09690896319727
H           -0.05740588309051        0.86036707438170        1.60628370284649
H           -1.24920903872065        0.96443791792348        0.60234941449223
N            1.72531036488521       -2.35884311043143       -1.20249952877942
H            1.73742540417163       -3.30022801964895       -0.83468491685664
H            1.47671082480081       -2.38219280611566       -2.18241194519874
H            2.64124009493594       -1.94526384492098       -1.09510727577267
O           -0.83614768242291       -1.43332448358617       -0.79829888663255
12
 energy: -16.886831154347 gnorm: 0.000518714265 xtb: 6.6.1 (8d0f1dd)
C            0.21274028750733       -1.04719639930154       -0.18547892965577
H            0.76105536157401       -0.23969569203127       -0.64575100464686
H           -1.33146258142663       -2.15766548520927       -0.36915299789236
H            0.56661746610364       -1.50591954325784        0.72494572665017
O           -0.69613292196892        0.34511777683028        1.09667824260981
H           -0.05652260528909        0.85945564558368        1.60510843347126
H           -1.24861007137488        0.96376400569800        0.60158679825405
N            1.72610019351868       -2.35907111445515       -1.20262733995906
H            1.73876916010677       -3.30040206858773       -0.83488032719145
H            1.47726499484344       -2.38285077764617       -2.18239913740448
H            2.64198045497331       -1.94541093436591       -1.09590611101381
O           -0.83707602157008       -1.43234063025653       -0.79775459422309
12
 energy: -16.886688159151 gnorm: 0.000883057595 xtb: 6.6.1 (8d0f1dd)
C            0.21010418362604       -1.04468501843020       -0.18319446285932
H            0.76044156529255       -0.23934219030012       -0.64490610386750
H           -1.33251654796779       -2.15690143463254       -0.36896657683548
H            0.56585966281866       -1.50606593554028        0.72517786285576
O           -0.69641792169806        0.34404867069134        1.09662780620546
H           -0.05513668665883        0.85807818924759        1.60346324441772
H           -1.24781487635182        0.96288306300771        0.60035633420900
N            1.72686283933284       -2.35913255020637       -1.20257390139178
H            1.74055754928840       -3.30064090876543       -0.83530827651138
H            1.47795469305045       -2.38346031921273       -2.18230794267529
H            2.64298215129043       -1.94573879858665       -1.09690689687461
O           -0.83815289502529       -1.43125798427176       -0.79709232767418
12
 energy: -16.886556144690 gnorm: 0.000948466166 xtb: 6.6.1 (8d0f1dd)
C            0.20687383048284       -1.04231750246944       -0.18021690696914
H            0.75920179813582       -0.23869399189565       -0.64256675636036
H           -1.33518334066390       -2.15506340488776       -0.36883627720572
H            0.56369523936634       -1.50678501256673        0.72618438697658
O           -0.69761441917458        0.34297999856760        1.09725418609713
H           -0.05159415196380        0.85510178588900        1.59992213539060
H           -1.24614972624265        0.96160015470699        0.59762011236949
N            1.72748297851703       -2.35858082111963       -1.20184995654161
H            1.74494397232757       -3.30079332064883       -0.83597427634786
H            1.47843414388299       -2.38444511315701       -2.18166746685842
H            2.64432412835612       -1.94544110649916       -1.09914705222502
O           -0.83969073602620       -1.42977688291882       -0.79635336932727
12
 energy: -16.886435865384 gnorm: 0.000505746593 xtb: 6.6.1 (8d0f1dd)
C            0.20463049303824       -1.04021353377282       -0.17828849071780
H            0.75918201760284       -0.23896305312409       -0.64220684055097
H           -1.33565693161654       -2.15483268759870       -0.36905664246508
H            0.56328359293087       -1.50722981831321        0.72612643289607
O           -0.69735168985486        0.34231283145690        1.09679164579371
H           -0.05097049889588        0.85451052687422        1.59921390113104
H           -1.24582055947828        0.96131104071552        0.59720284301135
N            1.72826399408829       -2.35890148958477       -1.20199621113925
H            1.74617866853568       -3.30093673169390       -0.83602669737643
H            1.47863263800001       -2.38496693576144       -2.18157535098332
H            2.64479799735262       -1.94529630218878       -1.09984096175085
O           -0.84044600470543       -1.42900906400839       -0.79597486885007
12
 energy: -16.886322625474 gnorm: 0.000748827404 xtb: 6.6.1 (8d0f1dd)
C            0.20231799029389       -1.03805246262206       -0.17623537767852
H            0.75872443204127       -0.23877563708602       -0.64141128771499
H           -1.33657586461033       -2.15418075407961       -0.36896001922325
H            0.56255526188610       -1.50742175263776        0.72636201478226
O           -0.69754430546383        0.34145628457363        1.09663945237597
H           -0.04983368709371        0.85331346464143        1.59787751174009
H           -1.24512402555379        0.96066726304501        0.59614311222511
N            1.72897304003566       -2.35901386754158       -1.20197610882268
H            1.74788712501251       -3.30116194703275       -0.83638376666912
H            1.47909841607823       -2.38552986302569       -2.18146425977184
H            2.64561128653229       -1.94544127761385       -1.10080482960402
O           -0.84136595216074       -1.42807466762020       -0.79541768264060
12
 energy: -16.886217873705 gnorm: 0.000643408866 xtb: 6.6.1 (8d0f1dd)
C            0.19950354489024       -1.03607191948809       -0.17358539978612
H            0.75770490037162       -0.23829727269484       -0.63919862154537
H           -1.33898365125147       -2.15251513920950       -0.36893358075269
H            0.56048034597442       -1.50810381861591        0.72734795107283
O           -0.69846102460809        0.34060818483450        1.09691990387020
H           -0.04695800491059        0.85061174891243        1.59510412294147
H           -1.24357205423651        0.95976760365267        0.59368678434631
N            1.72958000876450       -2.35857467262561       -1.20132715203697
H            1.75213126342118       -3.30131283095310       -0.83689290542844
H            1.47923047359127       -2.38658144288169       -2.18081338496008
H            2.64679049033655       -1.94499784537040       -1.10313193012509
O           -0.84272257534557       -1.42674781255991       -0.79480702859763
12
 energy: -16.886122303823 gnorm: 0.000935491179 xtb: 6.6.1 (8d0f1dd)
C            0.19742253759717       -1.03411014262644       -0.17165035456546
H            0.75793367948604       -0.23883740924248       -0.63885616723776
H           -1.33953530429632       -2.15217075369555       -0.36918711611482
H            0.56021779713168       -1.50888462759811        0.72714830800531
O           -0.69849763367151        0.34006992264592        1.09664779007395
H           -0.04632954687206        0.84990996676700        1.59434736589769
H           -1.24314473719479        0.95957456466011        0.59309342796802
N            1.73013479414212       -2.35871728821405       -1.20135326922085