      -----------------------------------------------------------      
     |                   =====================                   |     
     |                           x T B                           |     
     |                   =====================                   |     
     |                         S. Grimme                         |     
     |          Mulliken Center for Theoretical Chemistry        |     
     |                    University of Bonn                     |     
      -----------------------------------------------------------      

   * xtb version 6.6.1 (8d0f1dd) compiled by 'stahn@M-Bot' on 2023-08-01

   xtb is free software: you can redistribute it and/or modify it under
   the terms of the GNU Lesser General Public License as published by
   the Free Software Foundation, either version 3 of the License, or
   (at your option) any later version.
   
   xtb is distributed in the hope that it will be useful,
   but WITHOUT ANY WARRANTY; without even the implied warranty of
   MERCHANTABILITY or FITNESS FOR A PARTICULAR PURPOSE.  See the
   GNU Lesser General Public License for more details.
   
   Cite this work as:
   * C. Bannwarth, E. Caldeweyher, S. Ehlert, A. Hansen, P. Pracht,
     J. Seibert, S. Spicher, S. Grimme, WIREs Comput. Mol. Sci., 2020, 11,
     e01493. DOI: 10.1002/wcms.1493
   
   for GFN2-xTB:
   * C. Bannwarth, S. Ehlert and S. Grimme., J. Chem. Theory Comput., 2019,
     15, 1652-1671. DOI: 10.1021/acs.jctc.8b01176
   for GFN1-xTB:
   * S. Grimme, C. Bannwarth, P. Shushkov, J. Chem. Theory Comput., 2017,
     13, 1989-2009. DOI: 10.1021/acs.jctc.7b00118
   for GFN0-xTB:
   * P. Pracht, E. Caldeweyher, S. Ehlert, S. Grimme, ChemRxiv, 2019, preprint.
     DOI: 10.26434/chemrxiv.8326202.v1
   for GFN-FF:
   * S. Spicher and S. Grimme, Angew. Chem. Int. Ed., 2020, 59, 15665-15673.
     DOI: 10.1002/anie.202004239
   
   for ALPB and GBSA implicit solvation:
   * S. Ehlert, M. Stahn, S. Spicher, S. Grimme, J. Chem. Theory Comput.,
     2021, 17, 4250-4261. DOI: 10.1021/acs.jctc.1c00471
   
   for DFT-D4:
   * E. Caldeweyher, C. Bannwarth and S. Grimme, J. Chem. Phys., 2017,
     147, 034112. DOI: 10.1063/1.4993215
   * E. Caldeweyher, S. Ehlert, A. Hansen, H. Neugebauer, S. Spicher,
     C. Bannwarth and S. Grimme, J. Chem. Phys., 2019, 150, 154122.
     DOI: 10.1063/1.5090222
   * E. Caldeweyher, J.-M. Mewes, S. Ehlert and S. Grimme, Phys. Chem. Chem. Phys.
     2020, 22, 8499-8512. DOI: 10.1039/D0CP00502A
   
   for sTDA-xTB:
   * S. Grimme and C. Bannwarth, J. Chem. Phys., 2016, 145, 054103.
     DOI: 10.1063/1.4959605
   
   in the mass-spec context:
   * V. Asgeirsson, C. Bauer and S. Grimme, Chem. Sci., 2017, 8, 4879.
     DOI: 10.1039/c7sc00601b
   * J. Koopman and S. Grimme, ACS Omega 2019, 4, 12, 15120-15133.
     DOI: 10.1021/acsomega.9b02011
   
   for metadynamics refer to:
   * S. Grimme, J. Chem. Theory Comput., 2019, 155, 2847-2862
     DOI: 10.1021/acs.jctc.9b00143
   
   for SPH calculations refer to:
   * S. Spicher and S. Grimme, J. Chem. Theory Comput., 2021, 17, 1701-1714
     DOI: 10.1021/acs.jctc.0c01306
   
   with help from (in alphabetical order)
   P. Atkinson, C. Bannwarth, F. Bohle, G. Brandenburg, E. Caldeweyher
   M. Checinski, S. Dohm, S. Ehlert, S. Ehrlich, I. Gerasimov, C. Hölzer
   A. Katbashev, J. Koopman, C. Lavigne, S. Lehtola, F. März, M. Müller,
   F. Musil, H. Neugebauer, J. Pisarek, C. Plett, P. Pracht, F. Pultar,
   J. Seibert, P. Shushkov, S. Spicher, M. Stahn, M. Steiner, T. Strunk,
   J. Stückrath, T. Rose, and J. Unsleber
   
 * started run on 2024/02/11 at 18:56:25.097     

           -------------------------------------------------
          |                Calculation Setup                |
           -------------------------------------------------

          program call               : xtb xtbopt.xyz --chrg 1 --alpb water --grad
          coordinate file            : xtbopt.xyz
          omp threads                :                     2

   ID    Z sym.   atoms
    1    6 C      1
    2    1 H      2-4, 6, 7, 9-11
    3    8 O      5, 12
    4    7 N      8

molecular fragmentation (1/2 indicates fragments):
111122222221
# atoms in fragment 1/2:     5     7
 fragment masses (1/2) :       31.03       35.05
CMA distance (Bohr)    :   1.864
constraining FC (au)   :  0.0500

           -------------------------------------------------
          |                 G F N 2 - x T B                 |
           -------------------------------------------------

        Reference                      10.1021/acs.jctc.8b01176
      * Hamiltonian:
        H0-scaling (s, p, d)           1.850000    2.230000    2.230000
        zeta-weighting                 0.500000
      * Dispersion:
        s8                             2.700000
        a1                             0.520000
        a2                             5.000000
        s9                             5.000000
      * Repulsion:
        kExp                           1.500000    1.000000
        rExp                           1.000000
      * Coulomb:
        alpha                          2.000000
        third order                    shell-resolved
        anisotropic                    true
        a3                             3.000000
        a5                             4.000000
        cn-shift                       1.200000
        cn-exp                         4.000000
        max-rad                        5.000000

      * Solvation model:               ALPB
        Solvent                        water
        Parameter file                 internal GFN2-xTB/ALPB
        Dielectric constant                8.0200E+01
        Reference state                gsolv [1 M gas/solution]
        Free energy shift                  1.0808E-03 Eh       6.7819E-01 kcal/mol
        Temperature                        2.9815E+02 K
        Density                            1.0000E+00 kg/L
        Solvent mass                       1.8000E+01 g/mol
        Interaction kernel             P16
        Born radius scaling (c1)           1.4744E+00
        Born radii integrator          GBOBC
        Born offset                        0.0000E+00 a0       0.0000E+00 AA
        H-bond correction              true
        Ion screening                  false
        Surface tension                    1.0000E-05 Eh       1.5569E+01 dyn/cm
        Grid points                               230 per atom
q/qsh data taken from xtbrestart
CAMM data taken from xtbrestart

          ...................................................
          :                      SETUP                      :
          :.................................................:
          :  # basis functions                  24          :
          :  # atomic orbitals                  24          :
          :  # shells                           16          :
          :  # electrons                        28          :
          :  max. iterations                   250          :
          :  Hamiltonian                  GFN2-xTB          :
          :  restarted?                       true          :
          :  GBSA solvation                   true          :
          :  PC potential                    false          :
          :  electronic temp.          300.0000000     K    :
          :  accuracy                    1.0000000          :
          :  -> integral cutoff          0.2500000E+02      :
          :  -> integral neglect         0.1000000E-07      :
          :  -> SCF convergence          0.1000000E-05 Eh   :
          :  -> wf. convergence          0.1000000E-03 e    :
          :  Broyden damping             0.4000000          :
          ...................................................

 iter      E             dE          RMSdq      gap      omega  full diag
   1    -17.0432607 -0.170433E+02  0.344E-07    4.50       0.0  T
   2    -17.0432607 -0.355271E-14  0.187E-07    4.50  100000.0  T
   3    -17.0432607  0.213163E-13  0.101E-07    4.50  100000.0  T

   *** convergence criteria satisfied after 3 iterations ***

         #    Occupation            Energy/Eh            Energy/eV
      -------------------------------------------------------------
         1        2.0000           -0.7391683             -20.1138
       ...           ...                  ...                  ...
         8        2.0000           -0.5549850             -15.1019
         9        2.0000           -0.5296767             -14.4132
        10        2.0000           -0.5053182             -13.7504
        11        2.0000           -0.5045837             -13.7304
        12        2.0000           -0.4752725             -12.9328
        13        2.0000           -0.4648057             -12.6480
        14        2.0000           -0.4066673             -11.0660 (HOMO)
        15                         -0.2413271              -6.5668 (LUMO)
        16                          0.0613081               1.6683
        17                          0.0790019               2.1498
        18                          0.1004261               2.7327
        19                          0.1361015               3.7035
       ...                                ...                  ...
        24                          0.3795064              10.3269
      -------------------------------------------------------------
                  HL-Gap            0.1653402 Eh            4.4991 eV
             Fermi-level           -0.3239972 Eh           -8.8164 eV

 SCC (total)                   0 d,  0 h,  0 min,  0.017 sec
 SCC setup                      ...        0 min,  0.003 sec ( 20.243%)
 Dispersion                     ...        0 min,  0.000 sec (  0.852%)
 classical contributions        ...        0 min,  0.000 sec (  0.242%)
 integral evaluation            ...        0 min,  0.001 sec (  6.716%)
 iterations                     ...        0 min,  0.006 sec ( 33.523%)
 molecular gradient             ...        0 min,  0.002 sec ( 13.787%)
 printout                       ...        0 min,  0.004 sec ( 24.225%)

         :::::::::::::::::::::::::::::::::::::::::::::::::::::
         ::                     SUMMARY                     ::
         :::::::::::::::::::::::::::::::::::::::::::::::::::::
         :: total energy             -16.886135292666 Eh    ::
         :: total w/o Gsasa/hb       -16.860433864650 Eh    ::
         :: gradient norm              0.000447789755 Eh/a0 ::
         :: HOMO-LUMO gap              4.499136804396 eV    ::
         ::.................................................::
         :: SCC energy               -17.043260657946 Eh    ::
         :: -> isotropic ES            0.143464429896 Eh    ::
         :: -> anisotropic ES         -0.009557108211 Eh    ::
         :: -> anisotropic XC          0.005496615075 Eh    ::
         :: -> dispersion             -0.003564047623 Eh    ::
         :: -> Gsolv                  -0.119765576471 Eh    ::
         ::    -> Gelec               -0.094064148454 Eh    ::
         ::    -> Gsasa                0.001006573352 Eh    ::
         ::    -> Ghb                 -0.027788761067 Eh    ::
         ::    -> Gshift               0.001080759698 Eh    ::
         :: repulsion energy           0.157122255565 Eh    ::
         :: add. restraining           0.000000000000 Eh    ::
         :: total charge               1.000000000000 e     ::
         :::::::::::::::::::::::::::::::::::::::::::::::::::::

           -------------------------------------------------
          |                Property Printout                |
           -------------------------------------------------

    * Orbital Energies and Occupations

         #    Occupation            Energy/Eh            Energy/eV
      -------------------------------------------------------------
         1        2.0000           -0.7391683             -20.1138
         2        2.0000           -0.7155426             -19.4709
         3        2.0000           -0.6544972             -17.8098
         4        2.0000           -0.6112814             -16.6338
         5        2.0000           -0.6004243             -16.3384
         6        2.0000           -0.5955359             -16.2054
         7        2.0000           -0.5779763             -15.7275
         8        2.0000           -0.5549850             -15.1019
         9        2.0000           -0.5296767             -14.4132
        10        2.0000           -0.5053182             -13.7504
        11        2.0000           -0.5045837             -13.7304
        12        2.0000           -0.4752725             -12.9328
        13        2.0000           -0.4648057             -12.6480
        14        2.0000           -0.4066673             -11.0660 (HOMO)
        15                         -0.2413271              -6.5668 (LUMO)
        16                          0.0613081               1.6683
        17                          0.0790019               2.1498
        18                          0.1004261               2.7327
        19                          0.1361015               3.7035
        20                          0.2169812               5.9044
        21                          0.2181427               5.9360
        22                          0.2425834               6.6010
        23                          0.2562210               6.9721
        24                          0.3795064              10.3269
      -------------------------------------------------------------
                  HL-Gap            0.1653402 Eh            4.4991 eV
             Fermi-level           -0.3239972 Eh           -8.8164 eV

     #   Z          covCN         q      C6AA      α(0)
     1   6 C        3.117     0.140    24.791     8.155
     2   1 H        0.926     0.165     1.296     1.780
     3   1 H        0.804     0.425     0.441     1.043
     4   1 H        0.926     0.150     1.394     1.846
     5   8 O        1.992    -0.514    23.147     6.498
     6   1 H        0.804     0.418     0.453     1.057
     7   1 H        0.804     0.415     0.457     1.062
     8   7 N        2.607    -0.461    32.134     8.419
     9   1 H        0.860     0.193     1.141     1.673
    10   1 H        0.860     0.192     1.145     1.676
    11   1 H        0.860     0.194     1.135     1.669
    12   8 O        1.659    -0.318    19.334     5.936

 Mol. C6AA /au·bohr⁶  :        745.231395
 Mol. C8AA /au·bohr⁸  :      14538.305738
 Mol. α(0) /au        :         40.814643


Wiberg/Mayer (AO) data.
largest (>0.10) Wiberg bond orders for each atom

 ---------------------------------------------------------------------------
     #   Z sym  total        # sym  WBO       # sym  WBO       # sym  WBO
 ---------------------------------------------------------------------------
     1   6 C    3.816 --    12 O    1.339     4 H    0.950     2 H    0.946
                             5 O    0.420     8 N    0.157
     2   1 H    0.973 --     1 C    0.946
     3   1 H    0.819 --    12 O    0.798
     4   1 H    0.978 --     1 C    0.950
     5   8 O    2.183 --     7 H    0.821     6 H    0.819     1 C    0.420
     6   1 H    0.825 --     5 O    0.819
     7   1 H    0.827 --     5 O    0.821
     8   7 N    3.106 --    10 H    0.960    11 H    0.960     9 H    0.959
                             1 C    0.157
     9   1 H    0.963 --     8 N    0.959
    10   1 H    0.963 --     8 N    0.960
    11   1 H    0.962 --     8 N    0.960
    12   8 O    2.283 --     1 C    1.339     3 H    0.798
 ---------------------------------------------------------------------------

Topologies differ in total number of bonds
Writing topology from bond orders to xtbtopo.mol

molecular dipole:
                 x           y           z       tot (Debye)
 q only:        0.211      -1.330       0.290
   full:        0.451      -1.434       0.215       3.860
molecular quadrupole (traceless):
                xx          xy          yy          xz          yz          zz
 q only:       -1.256      -3.276       7.338      -2.301       5.696      -6.082
  q+dip:       -1.739      -5.275       9.320      -3.958       6.486      -7.581
   full:       -1.598      -5.398       9.306      -3.877       7.031      -7.708


           -------------------------------------------------
          | TOTAL ENERGY              -16.886135292666 Eh   |
          | GRADIENT NORM               0.000447789755 Eh/α |
          | HOMO-LUMO GAP               4.499136804396 eV   |
           -------------------------------------------------

------------------------------------------------------------------------
 * finished run on 2024/02/11 at 18:56:25.179     
------------------------------------------------------------------------
 total:
 * wall-time:     0 d,  0 h,  0 min,  0.081 sec
 *  cpu-time:     0 d,  0 h,  0 min,  0.079 sec
 * ratio c/w:     0.973 speedup
 SCF:
 * wall-time:     0 d,  0 h,  0 min,  0.022 sec
 *  cpu-time:     0 d,  0 h,  0 min,  0.026 sec
 * ratio c/w:     1.196 speedup

