12
 energy: -16.886134852712 gnorm: 0.005576270141 xtb: 6.6.1 (8d0f1dd)
C            0.17020552144914       -0.96194239948191       -0.10125238375269
H            0.79375858468903       -0.22935066993411       -0.59248367697368
H           -1.33148221788043       -2.10962816091925       -0.39160034813249
H            0.56362598649013       -1.52383733142475        0.73306459706159
O           -0.66523474731087        0.24960539900533        1.04050738655437
H           -0.00316744841106        0.76247734059818        1.53160406454986
H           -1.21097949724129        0.85494364703894        0.51115221700509
N            1.69281806040657       -2.31380423586110       -1.15673856891862
H            1.76723885892633       -3.25183091642165       -0.78369347297065
H            1.38589560218954       -2.38635733737269       -2.11880465904961
H            2.62020178352331       -1.90847671307165       -1.15520245824708
O           -0.82815676983315       -1.38401383915406       -0.80218393812785
12
 energy: -16.886118962097 gnorm: 0.034079848189 xtb: 6.6.1 (8d0f1dd)
C            0.16993780871710       -0.96164257081162       -0.10099412538858
H            0.79372675985708       -0.22931188019596       -0.59245058877146
H           -1.33148663746469       -2.10962127574837       -0.39159478385915
H            0.56359818265373       -1.52380064816169        0.73309253311368
O           -0.66512872941902        0.24944196194792        1.04035900300694
H           -0.00315517764858        0.76245359013312        1.53158625303008
H           -1.21096806609554        0.85492236504936        0.51113398773059
N            1.69298050890749       -2.31394815667984       -1.15685257844136
H            1.76725574658666       -3.25184852883298       -0.78370636315778
H            1.38591336103394       -2.38637352678748       -2.11881998279233
H            2.62022228287877       -1.90849296686608       -1.15521655486432
O           -0.82817232300968       -1.38399358004511       -0.80216804060807
12
 energy: -16.886135290056 gnorm: 0.000195078947 xtb: 6.6.1 (8d0f1dd)
C            0.17016289941437       -0.96189118327649       -0.10121111864112
H            0.79375194805272       -0.22935011875593       -0.59247979756733
H           -1.33148980388331       -2.10961746821065       -0.39159370006868
H            0.56363223763575       -1.52383804340578        0.73305142305704
O           -0.66523387280282        0.24958078393271        1.04049541061834
H           -0.00316171105563        0.76246224169301        1.53158933181294
H           -1.21097509915153        0.85493332985867        0.51114002043392
N            1.69283990700159       -2.31381610573993       -1.15674239181582
H            1.76725099013576       -3.25183955251749       -0.78369779685200
H            1.38589889893422       -2.38635653772264       -2.11880025951683
H            2.62021921493153       -1.90848698419572       -1.15521036800040
O           -0.82817189221540       -1.38399557865847       -0.80217199446181
12
 energy: -16.886135290360 gnorm: 0.000196081699 xtb: 6.6.1 (8d0f1dd)
C            0.17015494014206       -0.96189368256761       -0.10120041395651
H            0.79374441718316       -0.22934992850265       -0.59246266236552
H           -1.33149488821468       -2.10962205080009       -0.39159346960246
H            0.56361940275025       -1.52383641164355        0.73306591814893
O           -0.66523883064729        0.24958678949791        1.04050091799512
H           -0.00314919887981        0.76245779462011        1.53158145553643
H           -1.21096267592767        0.85493391707655        0.51112031915752
N            1.69283691907120       -2.31380683929003       -1.15674186897247
H            1.76725692807520       -3.25183867761361       -0.78370680638960
H            1.38590427534974       -2.38635497901250       -2.11880512361589
H            2.62022624056064       -1.90848870751683       -1.15521866272592
O           -0.82817381246555       -1.38400244124642       -0.80217084421138
