 Entering Gaussian System, Link 0=/opt/g16C01/g16
 Input=repka_freq.gjf
 Output=repka_freq.log
 Initial command:
 /opt/g16C01/l1.exe "/scratch/Gau-1067243.inp" -scrdir="/scratch/"
 Entering Link 1 = /opt/g16C01/l1.exe PID=   1067244.
  
 Copyright (c) 1988-2019, Gaussian, Inc.  All Rights Reserved.
  
 This is part of the Gaussian(R) 16 program.  It is based on
 the Gaussian(R) 09 system (copyright 2009, Gaussian, Inc.),
 the Gaussian(R) 03 system (copyright 2003, Gaussian, Inc.),
 the Gaussian(R) 98 system (copyright 1998, Gaussian, Inc.),
 the Gaussian(R) 94 system (copyright 1995, Gaussian, Inc.),
 the Gaussian 92(TM) system (copyright 1992, Gaussian, Inc.),
 the Gaussian 90(TM) system (copyright 1990, Gaussian, Inc.),
 the Gaussian 88(TM) system (copyright 1988, Gaussian, Inc.),
 the Gaussian 86(TM) system (copyright 1986, Carnegie Mellon
 University), and the Gaussian 82(TM) system (copyright 1983,
 Carnegie Mellon University). Gaussian is a federally registered
 trademark of Gaussian, Inc.
  
 This software contains proprietary and confidential information,
 including trade secrets, belonging to Gaussian, Inc.
  
 This software is provided under written license and may be
 used, copied, transmitted, or stored only in accord with that
 written license.
  
 The following legend is applicable only to US Government
 contracts under FAR:
  
                    RESTRICTED RIGHTS LEGEND
  
 Use, reproduction and disclosure by the US Government is
 subject to restrictions as set forth in subparagraphs (a)
 and (c) of the Commercial Computer Software - Restricted
 Rights clause in FAR 52.227-19.
  
 Gaussian, Inc.
 340 Quinnipiac St., Bldg. 40, Wallingford CT 06492
  
  
 ---------------------------------------------------------------
 Warning -- This program may not be used in any manner that
 competes with the business of Gaussian, Inc. or will provide
 assistance to any competitor of Gaussian, Inc.  The licensee
 of this program is prohibited from giving any competitor of
 Gaussian, Inc. access to this program.  By using this program,
 the user acknowledges that Gaussian, Inc. is engaged in the
 business of creating and licensing software in the field of
 computational chemistry and represents and warrants to the
 licensee that it is not a competitor of Gaussian, Inc. and that
 it will not use this program in any manner prohibited above.
 ---------------------------------------------------------------
  

 Cite this work as:
 Gaussian 16, Revision C.01,
 M. J. Frisch, G. W. Trucks, H. B. Schlegel, G. E. Scuseria, 
 M. A. Robb, J. R. Cheeseman, G. Scalmani, V. Barone, 
 G. A. Petersson, H. Nakatsuji, X. Li, M. Caricato, A. V. Marenich, 
 J. Bloino, B. G. Janesko, R. Gomperts, B. Mennucci, H. P. Hratchian, 
 J. V. Ortiz, A. F. Izmaylov, J. L. Sonnenberg, D. Williams-Young, 
 F. Ding, F. Lipparini, F. Egidi, J. Goings, B. Peng, A. Petrone, 
 T. Henderson, D. Ranasinghe, V. G. Zakrzewski, J. Gao, N. Rega, 
 G. Zheng, W. Liang, M. Hada, M. Ehara, K. Toyota, R. Fukuda, 
 J. Hasegawa, M. Ishida, T. Nakajima, Y. Honda, O. Kitao, H. Nakai, 
 T. Vreven, K. Throssell, J. A. Montgomery, Jr., J. E. Peralta, 
 F. Ogliaro, M. J. Bearpark, J. J. Heyd, E. N. Brothers, K. N. Kudin, 
 V. N. Staroverov, T. A. Keith, R. Kobayashi, J. Normand, 
 K. Raghavachari, A. P. Rendell, J. C. Burant, S. S. Iyengar, 
 J. Tomasi, M. Cossi, J. M. Millam, M. Klene, C. Adamo, R. Cammi, 
 J. W. Ochterski, R. L. Martin, K. Morokuma, O. Farkas, 
 J. B. Foresman, and D. J. Fox, Gaussian, Inc., Wallingford CT, 2019.
 
 ******************************************
 Gaussian 16:  ES64L-G16RevC.01  3-Jul-2019
                13-Feb-2024 
 ******************************************
 %nprocs=1
 Will use up to    1 processors via shared memory.
 -------------------------------------------
 # freq=noraman external="xtb-gaussian -P 4"
 -------------------------------------------
 1/10=4,18=10,30=1,38=1/1,3;
 2/12=2,17=6,18=5,40=1/2;
 3/11=9,25=1,30=1,41=9900000,43=2,71=2,140=1/1;
 4/20=17,22=2,24=3,113=1,114=1/2;
 6/7=2,8=2,9=2,10=2/1;
 7/8=1,25=1,44=-1/16;
 1/10=4,18=10,30=1/3;
 99//99;
 -----------
 Simple test
 -----------
 Symbolic Z-matrix:
 Charge =  0 Multiplicity = 1
 O                     0.56739   0.60999   1.87376 
 O                     1.82445   0.0298   -0.15534 
 O                     2.68215   0.90572   3.08767 
 O                     3.92059   0.60792   0.9873 
 H                     1.58496   0.77099   2.54519 
 H                     1.13106   0.30785   0.82048 
 H                     2.90875   0.30474   0.34885 
 H                     3.36865   0.76948   2.07046 
 H                     0.19811   1.48623   1.73621 
 H                     1.80246  -0.92771  -0.23321 
 H                     4.17514   1.48349   0.68428 
 H                     2.81985   0.11129   3.60992 
 

 GradGradGradGradGradGradGradGradGradGradGradGradGradGradGradGradGradGrad
 Berny optimization.
 Initialization pass.
 Trust Radius=3.00D-01 FncErr=1.00D-07 GrdErr=1.00D-07 EigMax=2.50D+02 EigMin=1.00D-04
 Number of steps in this run=      2 maximum allowed number of steps=      2.
 GradGradGradGradGradGradGradGradGradGradGradGradGradGradGradGradGradGrad

                          Input orientation:                          
 ---------------------------------------------------------------------
 Center     Atomic      Atomic             Coordinates (Angstroms)
 Number     Number       Type             X           Y           Z
 ---------------------------------------------------------------------
      1          8           0        0.567385    0.609994    1.873761
      2          8           0        1.824448    0.029803   -0.155345
      3          8           0        2.682149    0.905721    3.087670
      4          8           0        3.920591    0.607917    0.987300
      5          1           0        1.584964    0.770990    2.545185
      6          1           0        1.131063    0.307846    0.820484
      7          1           0        2.908747    0.304741    0.348845
      8          1           0        3.368648    0.769477    2.070456
      9          1           0        0.198112    1.486228    1.736208
     10          1           0        1.802457   -0.927706   -0.233209
     11          1           0        4.175138    1.483488    0.684283
     12          1           0        2.819855    0.111287    3.609919
 ---------------------------------------------------------------------
                    Distance matrix (angstroms):
                    1          2          3          4          5
     1  O    0.000000
     2  O    2.456440   0.000000
     3  O    2.456268   3.466991   0.000000
     4  O    3.468400   2.456352   2.456416   0.000000
     5  H    1.229714   2.810618   1.231363   2.812250   0.000000
     6  H    1.232242   1.228956   2.811308   2.810576   1.842587
     7  H    2.810787   1.226989   2.813127   1.234248   2.606473
     8  H    2.812685   2.808177   1.234734   1.226364   1.845779
     9  H    0.960764   2.888618   2.886845   3.897324   1.757659
    10  H    2.886044   0.960922   3.894040   2.886914   3.263794
    11  H    3.897913   2.888584   2.887750   0.960853   3.267968
    12  H    2.887312   3.895470   0.960642   2.887281   1.758927
                    6          7          8          9         10
     6  H    0.000000
     7  H    1.839188   0.000000
     8  H    2.604289   1.841584   0.000000
     9  H    1.759981   3.266225   3.267682   0.000000
    10  H    1.757165   1.755446   3.261941   3.504226   0.000000
    11  H    3.266049   1.762302   1.755481   4.113792   3.505034
    12  H    3.266742   3.268016   1.761913   3.503540   4.109044
                   11         12
    11  H    0.000000
    12  H    3.504151   0.000000
 Stoichiometry    H8O4
 Framework group  C1[X(H8O4)]
 Deg. of freedom    30
 Full point group                 C1      NOp   1
 Largest Abelian subgroup         C1      NOp   1
 Largest concise Abelian subgroup C1      NOp   1
                         Standard orientation:                         
 ---------------------------------------------------------------------
 Center     Atomic      Atomic             Coordinates (Angstroms)
 Number     Number       Type             X           Y           Z
 ---------------------------------------------------------------------
      1          8           0       -1.728722   -0.137918   -0.072944
      2          8           0        0.138031   -1.727898    0.072988
      3          8           0       -0.138118    1.728078    0.072962
      4          8           0        1.728672    0.138176   -0.072943
      5          1           0       -0.992493    0.844307    0.000511
      6          1           0       -0.843570   -0.992250   -0.001932
      7          1           0        0.989946   -0.847922   -0.000405
      8          1           0        0.847672    0.988158    0.000126
      9          1           0       -2.050182   -0.162252   -0.978007
     10          1           0        0.162734   -2.047122    0.978998
     11          1           0        2.050602    0.164636   -0.977873
     12          1           0       -0.163610    2.048942    0.978075
 ---------------------------------------------------------------------
 Rotational constants (GHZ):           4.5020434           4.4980219           2.3373947
 Standard basis: STO-3G (5D, 7F)
 There are    28 symmetry adapted cartesian basis functions of A   symmetry.
 There are    28 symmetry adapted basis functions of A   symmetry.
    28 basis functions,    84 primitive gaussians,    28 cartesian basis functions
    20 alpha electrons       20 beta electrons
       nuclear repulsion energy       154.0725497808 Hartrees.
 NAtoms=   12 NActive=   12 NUniq=   12 SFac= 1.00D+00 NAtFMM=   60 NAOKFM=F Big=F
 Integral buffers will be    131072 words long.
 Raffenetti 1 integral format.
 Two-electron integral symmetry is turned on.
 External calculation of energy, first and second derivatives.
 Running external command "xtb-gaussian -P 4 R"
         input file       "/scratch/Gau-1067244.EIn"
         output file      "/scratch/Gau-1067244.EOu"
         message file     "/scratch/Gau-1067244.EMs"
         fchk file        "/scratch/Gau-1067244.EFC"
         mat. el file     "/scratch/Gau-1067244.EUF"

 ExternalExternalExternalExternalExternalExternalExternalExternalExternalExternal
 Output from external command:
 "xtb-gaussian -P 4 R /scratch/Gau-1067244.EIn /scratch/Gau-1067244.EOu /scratch/Gau-1067244.EMs /scratch/Gau-1067244.EFC /scratch/Gau-1067244.EUF"
 normal termination of xtb
  
 ------- xtb command was ---------
 ?> xtb ./Gau-1067244.EIn -P 4 --hess --charge 0 --alpb water >/dev/null 2>Gau-1067244.EMs
 ---------------------------------
              Control returned to Gaussian.
 ~~~~~~~~~~~~~~~~~~~~~~~~~~~~~~~~~~~~~~~~~~~~~~~~~~~~~~~~~~~~~~~~~~~~~~~~~
 ExternalExternalExternalExternalExternalExternalExternalExternalExternalExternal

 Recovered energy= -20.3121558532     dipole=      0.006681576872     -0.029639858335     -0.000214956907
 Energy=    -20.3121559     NIter=   0.
 Dipole moment=       0.006682      -0.029640      -0.000215
 Full mass-weighted force constant matrix:
 Low frequencies ----1675.6455   -0.0272   -0.0174   -0.0110    0.0074    0.0153
 Low frequencies ---    0.0203   98.6762  170.0665
 ******    1 imaginary frequencies (negative Signs) ****** 
 Diagonal vibrational polarizability:
        0.0000000       0.0000000       0.0000000
 Harmonic frequencies (cm**-1), IR intensities (KM/Mole), Raman scattering
 activities (A**4/AMU), depolarization ratios for plane and unpolarized
 incident light, reduced masses (AMU), force constants (mDyne/A),
 and normal coordinates:
                      1                      2                      3
                      A                      A                      A
 Frequencies --  -1675.6455                98.6762               170.0665
 Red. masses --      1.0374                 4.7283                 7.3893
 Frc consts  --      1.7161                 0.0271                 0.1259
 IR Inten    --      0.0000                 0.0000                 0.0000
  Atom  AN      X      Y      Z        X      Y      Z        X      Y      Z
     1   8     0.00  -0.02  -0.00     0.02   0.00  -0.25     0.33   0.03  -0.00
     2   8     0.02   0.00   0.00    -0.00   0.02   0.25     0.03  -0.32  -0.00
     3   8    -0.02  -0.00   0.00     0.00  -0.02   0.25    -0.03   0.33  -0.00
     4   8    -0.00   0.02  -0.00    -0.02  -0.00  -0.25    -0.33  -0.03  -0.00
     5   1     0.32   0.38   0.05    -0.00  -0.00   0.00     0.12   0.15   0.03
     6   1    -0.38   0.32  -0.05     0.00  -0.00  -0.00     0.15  -0.12   0.03
     7   1    -0.32  -0.38   0.05     0.00   0.00   0.00    -0.12  -0.15   0.03
     8   1     0.38  -0.32  -0.05    -0.00   0.00  -0.00    -0.15   0.12   0.03
     9   1     0.00  -0.02  -0.00     0.27   0.03  -0.34     0.32   0.02  -0.00
    10   1     0.02   0.00   0.00    -0.02   0.27   0.34     0.03  -0.32  -0.00
    11   1    -0.00   0.02  -0.00    -0.27  -0.02  -0.34    -0.32  -0.03  -0.00
    12   1    -0.02  -0.00   0.00     0.03  -0.27   0.34    -0.03   0.32  -0.00
                      4                      5                      6
                      A                      A                      A
 Frequencies --    495.7873               520.6063               521.2487
 Red. masses --      1.0538                 1.0666                 1.0677
 Frc consts  --      0.1526                 0.1703                 0.1709
 IR Inten    --      0.0000                 0.0000                 0.0000
  Atom  AN      X      Y      Z        X      Y      Z        X      Y      Z
     1   8     0.03   0.00   0.00    -0.03   0.00   0.00     0.03   0.00  -0.00
     2   8     0.00  -0.03   0.00    -0.00  -0.03  -0.00     0.00  -0.03  -0.00
     3   8    -0.00   0.03  -0.00     0.00  -0.03   0.00     0.00  -0.03   0.00
     4   8    -0.03  -0.00  -0.00    -0.03  -0.00  -0.00     0.03   0.00   0.00
     5   1     0.01   0.01  -0.17    -0.06  -0.07   0.27     0.04  -0.04   0.02
     6   1     0.02  -0.02  -0.17    -0.03  -0.05   0.02     0.08  -0.07  -0.27
     7   1    -0.01  -0.02  -0.17    -0.06  -0.08  -0.27     0.04  -0.04  -0.01
     8   1    -0.01   0.01  -0.17    -0.03  -0.05  -0.01     0.07  -0.07   0.27
     9   1    -0.44  -0.03   0.17     0.36   0.27  -0.15    -0.34   0.25   0.13
    10   1    -0.03   0.44   0.17     0.25   0.33   0.12    -0.28   0.34   0.14
    11   1     0.44   0.05   0.17     0.35   0.29   0.14    -0.34   0.25  -0.13
    12   1     0.03  -0.43   0.17     0.23   0.34  -0.13    -0.28   0.35  -0.15
                      7                      8                      9
                      A                      A                      A
 Frequencies --    536.2675               536.3091               545.1553
 Red. masses --      1.9347                 1.9078                 5.6786
 Frc consts  --      0.3278                 0.3233                 0.9943
 IR Inten    --      0.0000                 0.0000                 0.0000
  Atom  AN      X      Y      Z        X      Y      Z        X      Y      Z
     1   8    -0.07  -0.11  -0.03    -0.06   0.10  -0.02    -0.06   0.27  -0.01
     2   8     0.08   0.06  -0.02     0.06  -0.09   0.03     0.32   0.03  -0.00
     3   8     0.14   0.05   0.02     0.09  -0.07  -0.03    -0.22  -0.02   0.00
     4   8    -0.09  -0.05   0.03    -0.05   0.13   0.02    -0.02  -0.28   0.01
     5   1    -0.10  -0.04  -0.00    -0.24  -0.33  -0.07    -0.28   0.15  -0.01
     6   1    -0.34   0.22  -0.08     0.00  -0.14   0.01     0.11   0.27  -0.01
     7   1    -0.15   0.01   0.00    -0.25  -0.32   0.08     0.16  -0.23   0.01
     8   1    -0.31   0.26   0.07     0.02  -0.11  -0.01    -0.27  -0.18   0.03
     9   1    -0.31  -0.21   0.05    -0.25   0.25   0.03    -0.14   0.23   0.01
    10   1     0.24   0.27   0.04     0.18  -0.35  -0.05     0.37   0.05   0.00
    11   1    -0.33  -0.16  -0.05    -0.24   0.28  -0.04    -0.12  -0.27  -0.02
    12   1     0.30   0.25  -0.04     0.21  -0.33   0.05    -0.15   0.02  -0.01
                     10                     11                     12
                      A                      A                      A
 Frequencies --    566.7016               579.8686               641.9745
 Red. masses --      1.0662                 8.2751                 1.8721
 Frc consts  --      0.2017                 1.6394                 0.4546
 IR Inten    --      0.0000                 0.0000                 0.0000
  Atom  AN      X      Y      Z        X      Y      Z        X      Y      Z
     1   8     0.00  -0.03   0.00    -0.35  -0.05  -0.05    -0.06  -0.09   0.01
     2   8     0.03  -0.00  -0.00     0.03  -0.32   0.04     0.04   0.12   0.01
     3   8    -0.03  -0.00  -0.00    -0.02   0.37   0.05     0.05   0.11  -0.01
     4   8     0.00   0.03   0.00     0.34   0.00  -0.05    -0.07  -0.09  -0.01
     5   1    -0.02  -0.02   0.25    -0.15   0.11  -0.01     0.02  -0.18   0.01
     6   1     0.02  -0.02  -0.24    -0.11  -0.15   0.01     0.40  -0.37  -0.06
     7   1     0.02   0.02   0.24     0.13  -0.13  -0.02     0.01  -0.17  -0.01
     8   1    -0.02   0.02  -0.25     0.13   0.13   0.02     0.40  -0.37   0.05
     9   1    -0.03   0.44  -0.00    -0.30  -0.07  -0.06     0.07   0.28  -0.04
    10   1    -0.43  -0.03   0.00     0.05  -0.26   0.06    -0.16  -0.17  -0.07
    11   1     0.04  -0.43   0.00     0.29   0.03  -0.06     0.07   0.27   0.04
    12   1     0.44   0.04  -0.00    -0.05   0.33   0.06    -0.15  -0.16   0.06
                     13                     14                     15
                      A                      A                      A
 Frequencies --    642.3548               737.5258               765.9113
 Red. masses --      1.8640                 1.1703                 1.0175
 Frc consts  --      0.4532                 0.3751                 0.3517
 IR Inten    --      0.0000                 0.0000                 0.0000
  Atom  AN      X      Y      Z        X      Y      Z        X      Y      Z
     1   8     0.12  -0.04  -0.01     0.03   0.00  -0.04     0.00  -0.01  -0.00
     2   8    -0.09   0.07   0.01    -0.00   0.03   0.04    -0.01  -0.00   0.00
     3   8    -0.09   0.06  -0.01     0.00  -0.03   0.04     0.01   0.00   0.00
     4   8     0.11  -0.05   0.01    -0.03  -0.00  -0.04    -0.00   0.01   0.00
     5   1    -0.38  -0.40   0.05     0.01  -0.00  -0.00     0.16  -0.14   0.00
     6   1    -0.17  -0.01   0.02     0.01   0.02   0.00    -0.14  -0.16   0.00
     7   1    -0.37  -0.40  -0.06    -0.01   0.01   0.00    -0.16   0.14  -0.01
     8   1    -0.18  -0.02  -0.01    -0.01  -0.01  -0.00     0.14   0.16  -0.00
     9   1    -0.16   0.15   0.06    -0.47  -0.05   0.14    -0.05   0.45   0.00
    10   1     0.28  -0.08  -0.04     0.03  -0.47  -0.14     0.46   0.03  -0.00
    11   1    -0.16   0.16  -0.06     0.47   0.04   0.14     0.04  -0.45   0.00
    12   1     0.27  -0.07   0.04    -0.03   0.48  -0.15    -0.44  -0.03  -0.00
                     16                     17                     18
                      A                      A                      A
 Frequencies --    888.2174               888.3351              1151.4328
 Red. masses --      1.0835                 1.0835                 1.1126
 Frc consts  --      0.5036                 0.5038                 0.8691
 IR Inten    --      0.0000                 0.0000                 0.0000
  Atom  AN      X      Y      Z        X      Y      Z        X      Y      Z
     1   8    -0.00  -0.02  -0.03     0.00  -0.03   0.02     0.00  -0.04  -0.00
     2   8    -0.03  -0.00   0.02     0.02  -0.00   0.03    -0.04  -0.00  -0.00
     3   8    -0.03  -0.00  -0.02     0.02   0.00  -0.03     0.04   0.00   0.00
     4   8     0.00  -0.02   0.03     0.01  -0.03  -0.02    -0.00   0.04   0.00
     5   1     0.28   0.35   0.08     0.11   0.09   0.02    -0.34   0.29   0.00
     6   1     0.09  -0.11   0.02    -0.35   0.28  -0.08     0.30   0.35   0.00
     7   1     0.28   0.35  -0.08     0.11   0.09  -0.02     0.35  -0.30  -0.00
     8   1     0.09  -0.11  -0.02    -0.35   0.28   0.08    -0.30  -0.35  -0.00
     9   1    -0.24   0.19   0.07     0.09   0.40  -0.04    -0.02   0.19   0.00
    10   1     0.39  -0.09  -0.04    -0.19  -0.24  -0.07     0.20   0.02   0.00
    11   1    -0.24   0.20  -0.07     0.09   0.39   0.04     0.02  -0.19   0.00
    12   1     0.40  -0.09   0.04    -0.20  -0.24   0.07    -0.19  -0.02   0.00
                     19                     20                     21
                      A                      A                      A
 Frequencies --   1287.8544              1288.4726              1403.3524
 Red. masses --      1.0312                 1.0311                 1.0291
 Frc consts  --      1.0077                 1.0085                 1.1941
 IR Inten    --      0.0000                 0.0000                 0.0000
  Atom  AN      X      Y      Z        X      Y      Z        X      Y      Z
     1   8    -0.01  -0.02  -0.01    -0.01   0.01  -0.01    -0.00   0.02   0.00
     2   8    -0.01  -0.01   0.01    -0.02   0.01  -0.01    -0.02  -0.00  -0.00
     3   8    -0.01  -0.01  -0.01    -0.02   0.01   0.01     0.02   0.00   0.00
     4   8    -0.01  -0.02   0.01    -0.01   0.01   0.01     0.00  -0.02   0.00
     5   1    -0.17   0.02   0.11     0.51  -0.45   0.01    -0.02  -0.03   0.43
     6   1     0.44   0.50  -0.01     0.01   0.16   0.11     0.03  -0.02  -0.44
     7   1    -0.16   0.02  -0.11     0.50  -0.44  -0.02     0.03   0.02   0.45
     8   1     0.45   0.50   0.02     0.02   0.17  -0.11    -0.02   0.03  -0.44
     9   1    -0.04   0.04   0.00    -0.05  -0.03   0.01     0.02  -0.23  -0.00
    10   1     0.03  -0.05  -0.00     0.04   0.04   0.00     0.23   0.02   0.00
    11   1    -0.04   0.04  -0.00    -0.05  -0.03  -0.01    -0.02   0.23   0.00
    12   1     0.03  -0.05   0.01     0.05   0.04  -0.00    -0.22  -0.02  -0.00
                     22                     23                     24
                      A                      A                      A
 Frequencies --   1428.7475              1428.8594              1453.8855
 Red. masses --      1.0526                 1.0527                 1.0738
 Frc consts  --      1.2659                 1.2663                 1.3373
 IR Inten    --      0.0000                 0.0000                 0.0000
  Atom  AN      X      Y      Z        X      Y      Z        X      Y      Z
     1   8    -0.01   0.00   0.03     0.00  -0.02   0.00     0.01   0.00  -0.03
     2   8    -0.02  -0.00   0.00    -0.00  -0.01  -0.03     0.00  -0.01  -0.03
     3   8    -0.02  -0.00  -0.00    -0.00  -0.01   0.03    -0.00   0.01  -0.03
     4   8    -0.01   0.00  -0.03     0.00  -0.02  -0.00    -0.01   0.00  -0.03
     5   1     0.05  -0.05  -0.41    -0.05   0.04  -0.48    -0.09  -0.11   0.47
     6   1     0.04   0.05  -0.48     0.04   0.06   0.43    -0.11   0.09   0.44
     7   1     0.05  -0.05   0.41    -0.05   0.05   0.50     0.10   0.11   0.43
     8   1     0.04   0.05   0.50     0.05   0.05  -0.39     0.11  -0.10   0.46
     9   1     0.15  -0.00  -0.04    -0.01   0.23  -0.00    -0.15  -0.02   0.04
    10   1     0.23   0.01  -0.00     0.01   0.16   0.04    -0.01   0.15   0.03
    11   1     0.16  -0.01   0.04    -0.00   0.23   0.00     0.15   0.00   0.04
    12   1     0.23   0.00   0.00     0.01   0.15  -0.04     0.01  -0.16   0.04
                     25                     26                     27
                      A                      A                      A
 Frequencies --   1502.0697              1786.8848              3617.6038
 Red. masses --      1.0242                 1.0306                 1.0644
 Frc consts  --      1.3616                 1.9388                 8.2072
 IR Inten    --      0.0000                 0.0000                 0.0000
  Atom  AN      X      Y      Z        X      Y      Z        X      Y      Z
     1   8     0.02   0.00   0.00    -0.02  -0.00  -0.01     0.00   0.00   0.01
     2   8    -0.00   0.02  -0.00    -0.00   0.02  -0.01    -0.00   0.02  -0.05
     3   8     0.00  -0.02  -0.00     0.00  -0.02  -0.01     0.00  -0.00  -0.00
     4   8    -0.02  -0.00   0.00     0.02   0.00  -0.01    -0.01  -0.00   0.03
     5   1    -0.38   0.32  -0.01     0.31   0.36   0.14     0.00   0.00   0.00
     6   1    -0.33  -0.38   0.00     0.36  -0.31   0.13    -0.01   0.01  -0.01
     7   1     0.38  -0.32  -0.00    -0.31  -0.36   0.13     0.01   0.01  -0.00
     8   1     0.32   0.38   0.00    -0.36   0.31   0.13    -0.01   0.01   0.01
     9   1     0.00   0.00   0.01    -0.03  -0.00   0.03    -0.07  -0.01  -0.19
    10   1    -0.00   0.00  -0.01    -0.00   0.04   0.03     0.02  -0.27   0.75
    11   1    -0.00   0.00   0.01     0.03   0.00   0.03     0.19   0.02  -0.53
    12   1     0.00  -0.00  -0.01     0.00  -0.03   0.03    -0.00   0.02   0.07
                     28                     29                     30
                      A                      A                      A
 Frequencies --   3619.2998              3620.7859              3624.3554
 Red. masses --      1.0636                 1.0639                 1.0625
 Frc consts  --      8.2090                 8.2176                 8.2234
 IR Inten    --      0.0000                 0.0000                 0.0000
  Atom  AN      X      Y      Z        X      Y      Z        X      Y      Z
     1   8     0.01   0.00   0.03    -0.01  -0.00  -0.04    -0.01  -0.00  -0.02
     2   8    -0.00   0.01  -0.02    -0.00   0.01  -0.02    -0.00   0.00  -0.01
     3   8    -0.00   0.00   0.01    -0.00   0.01   0.03     0.00  -0.02  -0.05
     4   8     0.02   0.00  -0.04     0.00  -0.00  -0.01     0.01   0.00  -0.02
     5   1     0.01   0.01   0.01    -0.00  -0.00  -0.00    -0.02  -0.03  -0.02
     6   1     0.00  -0.00   0.00    -0.02   0.02  -0.01    -0.02   0.01  -0.01
     7   1     0.02   0.03  -0.01     0.01   0.01  -0.01     0.01   0.01  -0.01
     8   1     0.01  -0.01  -0.01    -0.01   0.01   0.00     0.03  -0.02  -0.01
     9   1    -0.17  -0.01  -0.45     0.25   0.02   0.69     0.15   0.01   0.40
    10   1     0.01  -0.14   0.39     0.01  -0.12   0.33     0.01  -0.09   0.23
    11   1    -0.26  -0.02   0.70    -0.06  -0.00   0.15    -0.10  -0.01   0.28
    12   1     0.00  -0.05  -0.14     0.02  -0.19  -0.52    -0.02   0.28   0.76

 -------------------
 - Thermochemistry -
 -------------------
 Temperature   298.150 Kelvin.  Pressure   1.00000 Atm.
 Atom     1 has atomic number  8 and mass  15.99491
 Atom     2 has atomic number  8 and mass  15.99491
 Atom     3 has atomic number  8 and mass  15.99491
 Atom     4 has atomic number  8 and mass  15.99491
 Atom     5 has atomic number  1 and mass   1.00783
 Atom     6 has atomic number  1 and mass   1.00783
 Atom     7 has atomic number  1 and mass   1.00783
 Atom     8 has atomic number  1 and mass   1.00783
 Atom     9 has atomic number  1 and mass   1.00783
 Atom    10 has atomic number  1 and mass   1.00783
 Atom    11 has atomic number  1 and mass   1.00783
 Atom    12 has atomic number  1 and mass   1.00783
 Molecular mass:    72.04226 amu.
 Principal axes and moments of inertia in atomic units:
                           1         2         3
     Eigenvalues --   400.87157 401.22997 772.11657
           X            0.99997  -0.00804  -0.00000
           Y            0.00804   0.99997   0.00000
           Z            0.00000  -0.00000   1.00000
 This molecule is an asymmetric top.
 Rotational symmetry number  1.
 Rotational temperatures (Kelvin)      0.21606     0.21587     0.11218
 Rotational constants (GHZ):           4.50204     4.49802     2.33739
    1 imaginary frequencies ignored.
 Zero-point vibrational energy     217413.0 (Joules/Mol)
                                   51.96295 (Kcal/Mol)
 Warning -- explicit consideration of  10 degrees of freedom as
           vibrations may cause significant error
 Vibrational temperatures:    141.97   244.69   713.33   749.04   749.96
          (Kelvin)            771.57   771.63   784.36   815.36   834.30
                              923.66   924.21  1061.14  1101.98  1277.95
                             1278.12  1656.66  1852.94  1853.82  2019.11
                             2055.65  2055.81  2091.82  2161.14  2570.93
                             5204.93  5207.37  5209.50  5214.64
 
 Zero-point correction=                           0.082808 (Hartree/Particle)
 Thermal correction to Energy=                    0.089226
 Thermal correction to Enthalpy=                  0.090171
 Thermal correction to Gibbs Free Energy=         0.053441
 Sum of electronic and zero-point Energies=            -20.229348
 Sum of electronic and thermal Energies=               -20.222930
 Sum of electronic and thermal Enthalpies=             -20.221985
 Sum of electronic and thermal Free Energies=          -20.258715
 
                     E (Thermal)             CV                S
                      KCal/Mol        Cal/Mol-Kelvin    Cal/Mol-Kelvin
 Total                   55.990             24.546             77.304
 Electronic               0.000              0.000              0.000
 Translational            0.889              2.981             38.741
 Rotational               0.889              2.981             26.321
 Vibrational             54.213             18.584             12.243
 Vibration     1          0.604              1.950              3.480
 Vibration     2          0.625              1.879              2.435
 Vibration     3          0.851              1.259              0.669
 Vibration     4          0.876              1.204              0.609
 Vibration     5          0.876              1.203              0.607
 Vibration     6          0.891              1.170              0.573
 Vibration     7          0.891              1.170              0.573
 Vibration     8          0.900              1.150              0.554
 Vibration     9          0.923              1.103              0.511
 Vibration    10          0.937              1.075              0.486
                       Q            Log10(Q)             Ln(Q)
 Total Bot       0.262389D-24        -24.581054        -56.599969
 Total V=0       0.322145D+14         13.508052         31.103439
 Vib (Bot)       0.865415D-37        -37.062776        -85.340194
 Vib (Bot)    1  0.208034D+01          0.318134          0.732530
 Vib (Bot)    2  0.118496D+01          0.073702          0.169706
 Vib (Bot)    3  0.332736D+00         -0.477900         -1.100406
 Vib (Bot)    4  0.309877D+00         -0.508811         -1.171580
 Vib (Bot)    5  0.309312D+00         -0.509603         -1.173403
 Vib (Bot)    6  0.296481D+00         -0.528003         -1.215771
 Vib (Bot)    7  0.296447D+00         -0.528053         -1.215887
 Vib (Bot)    8  0.289204D+00         -0.538796         -1.240623
 Vib (Bot)    9  0.272465D+00         -0.564690         -1.300246
 Vib (Bot)   10  0.262821D+00         -0.580339         -1.336280
 Vib (V=0)       0.106250D+02          1.026331          2.363214
 Vib (V=0)    1  0.263958D+01          0.421535          0.970620
 Vib (V=0)    2  0.178613D+01          0.251912          0.580049
 Vib (V=0)    3  0.110059D+01          0.041627          0.095850
 Vib (V=0)    4  0.108824D+01          0.036724          0.084560
 Vib (V=0)    5  0.108794D+01          0.036605          0.084287
 Vib (V=0)    6  0.108129D+01          0.033943          0.078157
 Vib (V=0)    7  0.108128D+01          0.033936          0.078141
 Vib (V=0)    8  0.107761D+01          0.032464          0.074750
 Vib (V=0)    9  0.106942D+01          0.029148          0.067115
 Vib (V=0)   10  0.106487D+01          0.027296          0.062850
 Electronic      0.100000D+01          0.000000          0.000000
 Translational   0.240345D+08          7.380835         16.995000
 Rotational      0.126150D+06          5.100886         11.745225
 ***** Axes restored to original set *****
 -------------------------------------------------------------------
 Center     Atomic                   Forces (Hartrees/Bohr)
 Number     Number              X              Y              Z
 -------------------------------------------------------------------
      1        8           0.001209525    0.001416458   -0.000931265
      2        8           0.000613900   -0.001050387    0.001520178
      3        8          -0.000448068   -0.001770346   -0.000947700
      4        8          -0.001385140    0.001457068    0.000069634
      5        1          -0.000048536    0.000166987    0.000692590
      6        1          -0.000809425   -0.000161458   -0.000024243
      7        1           0.000214610   -0.000179226   -0.000628725
      8        1           0.000707623    0.000167422    0.000207709
      9        1           0.000319408   -0.001466248    0.000324815
     10        1          -0.000044133    0.001523951   -0.000190199
     11        1          -0.000161163   -0.001503042    0.000502097
     12        1          -0.000168600    0.001398821   -0.000594891
 -------------------------------------------------------------------
 Cartesian Forces:  Max     0.001770346 RMS     0.000885666

 GradGradGradGradGradGradGradGradGradGradGradGradGradGradGradGradGradGrad
 Berny optimization.
 Search for a local minimum.
 Step number   1 out of a maximum of    2
 All quantities printed in internal units (Hartrees-Bohrs-Radians)
 Second derivative matrix not updated -- analytic derivatives used.
 ITU=  0
     Eigenvalues ---   -0.13481   0.00168   0.00572   0.01151   0.01154
     Eigenvalues ---    0.01666   0.01667   0.01673   0.01863   0.02205
     Eigenvalues ---    0.03620   0.03807   0.03813   0.03950   0.07590
     Eigenvalues ---    0.07688   0.07694   0.08988   0.10843   0.10846
     Eigenvalues ---    0.12363   0.15888   0.20951   0.20953   0.22202
     Eigenvalues ---    0.25472   0.79751   0.81145   0.81155   0.95546
 Eigenvalue     1 is  -1.35D-01 should be greater than     0.000000 Eigenvector:
                          Z8        X5        X7        Z6        X6
   1                    0.41685  -0.41344   0.40503  -0.38559   0.24740
                          Z5        X8        Z7        Y6        Y7
   1                   -0.24570  -0.23951   0.21428  -0.14790   0.14781
 Angle between quadratic step and forces=  80.24 degrees.
 Linear search not attempted -- first point.
 B after Tr=     0.000214    0.000111   -0.000713
         Rot=    1.000000   -0.000009    0.000046    0.000011 Ang=  -0.01 deg.
 Variable       Old X    -DE/DX   Delta X   Delta X   Delta X     New X
                                 (Linear)    (Quad)   (Total)
    X1        1.07220   0.00121   0.00000   0.00651   0.00642   1.07862
    Y1        1.15272   0.00142   0.00000  -0.02916  -0.02913   1.12359
    Z1        3.54090  -0.00093   0.00000   0.00505   0.00445   3.54535
    X2        3.44771   0.00061   0.00000  -0.00071  -0.00047   3.44724
    Y2        0.05632  -0.00105   0.00000   0.03020   0.03024   0.08656
    Z2       -0.29356   0.00152   0.00000  -0.00468  -0.00508  -0.29864
    X3        5.06853  -0.00045   0.00000  -0.00317  -0.00345   5.06507
    Y3        1.71156  -0.00177   0.00000   0.02813   0.02802   1.73959
    Z3        5.83485  -0.00095   0.00000  -0.01105  -0.01126   5.82359
    X4        7.40884  -0.00139   0.00000  -0.00272  -0.00265   7.40619
    Y4        1.14880   0.00146   0.00000  -0.02939  -0.02948   1.11932
    Z4        1.86573   0.00007   0.00000   0.00868   0.00866   1.87439
    X5        2.99515  -0.00005   0.00000   0.00348   0.00329   2.99843
    Y5        1.45696   0.00017   0.00000   0.00274   0.00270   1.45966
    Z5        4.80970   0.00069   0.00000   0.00653   0.00612   4.81582
    X6        2.13740  -0.00081   0.00000  -0.00844  -0.00836   2.12904
    Y6        0.58174  -0.00016   0.00000  -0.00265  -0.00261   0.57913
    Z6        1.55049  -0.00002   0.00000   0.00408   0.00357   1.55406
    X7        5.49674   0.00021   0.00000   0.00338   0.00354   5.50028
    Y7        0.57588  -0.00018   0.00000  -0.00126  -0.00128   0.57459
    Z7        0.65922  -0.00063   0.00000  -0.00227  -0.00246   0.65676
    X8        6.36582   0.00071   0.00000   0.00381   0.00370   6.36952
    Y8        1.45410   0.00017   0.00000   0.00194   0.00184   1.45594
    Z8        3.91259   0.00021   0.00000   0.00580   0.00570   3.91829
    X9        0.37438   0.00032   0.00000  -0.03837  -0.03840   0.33598
    Y9        2.80856  -0.00147   0.00000  -0.04911  -0.04907   2.75950
    Z9        3.28096   0.00032   0.00000   0.02067   0.02003   3.30099
   X10        3.40615  -0.00004   0.00000  -0.01435  -0.01413   3.39202
   Y10       -1.75311   0.00152   0.00000   0.03835   0.03839  -1.71472
   Z10       -0.44070  -0.00019   0.00000  -0.05804  -0.05848  -0.49918
   X11        7.88987  -0.00016   0.00000   0.04286   0.04302   7.93288
   Y11        2.80339  -0.00150   0.00000  -0.04936  -0.04945   2.75394
   Z11        1.29311   0.00050   0.00000  -0.00013  -0.00007   1.29304
   X12        5.32875  -0.00017   0.00000   0.00789   0.00749   5.33624
   Y12        0.21030   0.00140   0.00000   0.05996   0.05983   0.27013
   Z12        6.82176  -0.00059   0.00000   0.02903   0.02881   6.85057
         Item               Value     Threshold  Converged?
 Maximum Force            0.001770     0.000450     NO 
 RMS     Force            0.000886     0.000300     NO 
 Maximum Displacement     0.059827     0.001800     NO 
 RMS     Displacement     0.024764     0.001200     NO 
 Predicted change in Energy=-6.931495D-05
 GradGradGradGradGradGradGradGradGradGradGradGradGradGradGradGradGradGrad

 Unable to Open any file for archive entry.
 1\1\GINC-BARADVALA\Freq\External='xtb-gaussian -P 4'\ZDO\H8O4\XRAY\13-
 Feb-2024\0\\# freq=noraman external="xtb-gaussian -P 4"\\Simple test\\
 0,1\O,0.5673854521,0.609994392,1.8737611182\O,1.8244479633,0.029802834
 7,-0.155344766\O,2.6821485304,0.9057206136,3.0876697785\O,3.9205905066
 ,0.6079173034,0.9872999338\H,1.5849638107,0.7709904895,2.5451853187\H,
 1.1310629102,0.3078460988,0.8204835301\H,2.9087469464,0.3047409643,0.3
 488453325\H,3.368647828,0.7694771728,2.0704558991\H,0.1981123534,1.486
 2275538,1.7362083098\H,1.8024568469,-0.9277062927,-0.2332091305\H,4.17
 51378909,1.4834879897,0.6842828879\H,2.8198549,0.1112865402,3.60991930
 41\\Version=ES64L-G16RevC.01\HF=-20.3121559\RMSD=0.000e+00\RMSF=8.857e
 -04\ZeroPoint=0.0828082\Thermal=0.0892263\ETot=-20.2229295\HTot=-20.22
 19853\GTot=-20.258715\Dipole=-0.003298,-0.0073933,-0.029286\PG=C01 [X(
 H8O4)]\NImag=1\\0.20086943,-0.14655464,0.43691812,0.02135233,-0.042986
 65,0.13671065,-0.01557689,0.01804348,0.05569161,0.13225415,0.01173980,
 0.00184152,-0.02223341,0.01355702,0.50560361,0.03401758,-0.02310945,-0
 .05912897,0.00151171,0.04883603,0.13752302,-0.06699115,-0.01048322,-0.
 05742913,0.01454968,-0.00090485,-0.00628477,0.13966600,-0.00544289,0.0
 0869040,-0.00426934,-0.00040348,-0.00034307,-0.00147945,-0.04707280,0.
 37401906,-0.03531679,-0.00367574,-0.01441827,-0.00627971,-0.00326877,-
 0.00742476,0.03432779,-0.17855203,0.26019127,-0.00810883,0.00184792,0.
 00591086,-0.06481492,-0.02111985,-0.03078144,-0.01431200,0.00268858,0.
 03525416,0.16719900,0.00014324,0.00131201,0.00398316,-0.02708721,0.001
 90793,-0.01111755,0.00733872,0.00867974,-0.00840655,0.10645527,0.43602
 714,0.00646166,0.00350564,0.01356891,-0.05248049,-0.01342475,-0.009921
 07,0.05729253,-0.00650061,-0.06710238,-0.03878926,-0.10992572,0.171261
 59,-0.01555604,0.00433512,0.02927080,-0.01438801,0.00422849,0.01487765
 ,0.00254843,-0.00480947,-0.00310356,0.00709781,-0.00350974,-0.01946483
 ,0.02720601,-0.00898515,-0.03590589,-0.00702195,-0.00054953,-0.0001811
 2,0.00123405,-0.01111609,-0.03397348,-0.00237772,0.00059256,-0.0005369
 1,-0.00111454,-0.00726577,0.06373325,0.00763240,0.00132810,-0.00914426
 ,-0.00794409,0.00222947,0.00911529,0.02270234,0.00118636,-0.02904935,0
 .00358767,-0.00163953,-0.01197031,-0.01960921,-0.00454275,0.05107993,-
 0.02925124,-0.00601432,-0.01956842,-0.01084334,-0.00499390,-0.00462557
 ,-0.01210281,-0.00065651,-0.00364502,0.00942267,0.00284270,0.00746731,
 0.02552680,-0.00015765,0.00704166,0.04965349,-0.00204514,-0.02448072,0
 .02380836,-0.02011301,-0.02895721,0.01438544,0.00698689,0.00029491,0.0
 0226380,-0.00518377,-0.00246140,-0.00473549,-0.01338034,0.00049733,-0.
 01114635,0.00445515,0.06336265,0.00450000,0.01297921,-0.00622705,-0.02
 454112,0.00540725,-0.02074127,0.01839078,0.00213020,0.00640355,-0.0142
 9350,-0.00520592,-0.01236125,-0.03607608,-0.00510531,-0.03026115,0.020
 32826,-0.00804207,0.02874556,0.00704289,-0.00500147,-0.01853059,-0.001
 11645,0.00679254,-0.00664549,-0.01391179,0.00160762,0.01517608,-0.0168
 7647,0.01174246,0.02576280,0.00479960,0.00050691,0.00399943,-0.0324008
 3,0.01243163,0.03551096,0.02735952,0.00215859,-0.00241853,-0.00662608,
 0.02457833,-0.02911164,0.00268007,-0.00495604,0.00027726,0.00542513,0.
 01338511,-0.02426541,0.01980500,0.00202066,0.00047239,0.00071672,-0.00
 704841,0.00691274,0.01258970,-0.00770301,0.06318804,0.00328270,-0.0031
 0395,-0.00995460,0.01325999,0.00219106,-0.03111731,-0.00679536,0.00150
 601,0.00821055,0.00170549,0.00854539,-0.01793437,0.00365607,-0.0002082
 0,0.00031636,-0.00508426,0.00746439,0.02104713,-0.01960823,-0.00511306
 ,0.05111423,0.00926033,0.00220218,0.00739460,-0.01160363,-0.00254045,-
 0.00310278,-0.01292429,0.00486465,-0.00590512,-0.03018000,-0.00313292,
 -0.01748828,-0.03187476,-0.00053245,-0.00651081,0.00043784,-0.00140653
 ,-0.00372593,0.02438592,0.00608416,0.00501989,0.04943816,-0.00106788,-
 0.00054236,-0.00067213,0.00112348,-0.00018946,0.00080136,0.00850455,-0
 .03373322,-0.00741987,0.00443288,-0.03611035,-0.01065207,0.00178442,0.
 00242617,0.00198447,-0.00053982,0.00046999,0.00007458,-0.00240396,0.00
 049627,-0.00453624,0.00383038,0.06357011,-0.01564779,-0.00312004,-0.01
 419243,0.01972214,0.00393040,0.00635400,-0.03161692,-0.00134370,-0.012
 49314,0.00400938,0.00328944,0.00446385,0.03904789,0.00255823,0.0253530
 6,-0.00407670,0.00161490,0.00467144,-0.03805151,-0.01628427,-0.0291357
 4,0.02055385,-0.00754648,0.02884072,-0.07587693,0.14128753,-0.02531883
 ,0.00069733,-0.00075682,-0.00063862,-0.00079949,-0.00072641,-0.0007800
 2,0.00086731,-0.00030961,-0.00031037,-0.00719156,0.01388414,-0.0049107
 2,-0.00438578,0.01003924,0.00433601,-0.00074184,0.00045036,0.00023250,
 -0.00100067,0.00033315,0.00017185,0.08928831,0.15247280,-0.38739830,0.
 05610953,-0.00158922,0.00105440,0.00068000,-0.00344907,0.00034719,-0.0
 0160367,-0.00051629,0.00019921,-0.00008054,0.00948385,0.00247179,0.006
 08159,0.00643903,-0.00726398,-0.00620626,0.00057527,-0.00012277,0.0002
 6436,0.00016697,-0.00033351,-0.00012308,-0.16363249,0.39106518,-0.0282
 8068,0.05902056,-0.03637737,0.00197038,-0.00119224,-0.00431892,-0.0024
 8237,-0.00066989,-0.00228945,-0.00019830,-0.00013431,-0.00038477,-0.00
 063820,0.00979187,0.00188746,0.00214971,-0.01188106,0.00885522,0.00071
 659,0.00007781,0.00005542,-0.00028700,0.00001267,0.00046567,0.02696206
 ,-0.05506805,0.03254178,-0.00261985,0.00080719,0.00293798,-0.02754018,
 -0.00603098,0.00242769,-0.00041265,0.00006068,0.00027808,-0.00415487,-
 0.00070433,-0.00149128,0.00041603,-0.00003434,0.00029218,0.00474633,0.
 00866529,-0.00389506,0.00503299,-0.01472250,0.00118950,0.00010539,-0.0
 0020884,-0.00077399,-0.00004402,0.00020926,0.00032723,0.02484601,-0.00
 076810,0.00152014,0.00220793,-0.00915524,-0.45269120,-0.03242876,0.000
 13761,0.00049879,0.00059916,0.00183007,0.00166342,0.00160763,-0.000320
 55,-0.00050436,-0.00038610,0.00627884,-0.00810088,-0.00931339,-0.01016
 412,-0.00815072,-0.00491309,0.00010759,-0.00048667,-0.00052739,-0.0002
 0347,-0.00001909,-0.00003230,0.01207726,0.46619336,0.00116886,-0.00019
 273,-0.00166341,0.00245077,-0.02098993,-0.01876469,0.00033479,0.000371
 57,0.00060791,0.00023192,0.00027644,-0.00004456,-0.00014371,-0.0004626
 2,-0.00079900,0.00053004,-0.01425298,0.00046120,-0.00322378,-0.0080769
 9,0.00007778,-0.00036076,-0.00047588,-0.00044571,0.00026753,0.00023539
 ,-0.00039832,-0.00083137,0.04349515,0.02151691,0.00077375,0.00018999,-
 0.00043645,-0.00122037,0.00001868,-0.00110961,0.00038616,0.00034732,-0
 .00068423,-0.04342685,-0.09411050,0.02958667,-0.00062564,-0.00033782,0
 .00046227,-0.00094316,-0.00030246,0.00030208,-0.00393614,-0.01449387,0
 .00295972,-0.00257276,-0.00720808,0.00754811,-0.00051574,-0.00002355,0
 .00012088,-0.00033943,0.00020920,-0.00031447,0.05248491,0.00042572,0.0
 0023747,-0.00028018,0.00163495,0.00095113,-0.00019293,0.00227694,0.000
 38301,-0.00319004,-0.10520169,-0.38658732,0.12421450,-0.00023285,-0.00
 029132,-0.00005182,-0.00036254,-0.00018168,0.00047304,-0.00867421,-0.0
 0712070,-0.00217568,-0.00514353,0.00252836,0.01009497,-0.00000430,0.00
 013974,-0.00005147,-0.00007020,-0.00003049,0.00024981,0.11539166,0.390
 13361,-0.00042784,-0.00020899,-0.00031347,-0.00377299,-0.00142065,-0.0
 0252374,0.00096899,-0.00103380,-0.00328432,0.03248563,0.12098605,-0.06
 927256,0.00089591,0.00019409,0.00011609,-0.00018581,0.00027274,0.00023
 318,0.00522652,-0.00530488,0.00838862,0.00326212,0.01551643,-0.0028279
 9,0.00011214,-0.00002774,-0.00002864,-0.00035704,-0.00015454,-0.000073
 21,-0.03860587,-0.12876639,0.06982113,-0.00396546,-0.00065975,-0.00127
 475,-0.00039738,0.00001031,0.00035365,-0.03569607,0.04954271,-0.029321
 67,-0.00271284,0.00033191,0.00345353,0.00204133,0.01399518,-0.00674312
 ,0.00014003,-0.00014695,-0.00083640,0.00036261,0.00024662,0.00018200,0
 .00652848,-0.00858027,-0.00088631,-0.00029692,-0.00013656,-0.00036029,
 -0.00003576,-0.00002910,-0.00010983,-0.00006472,-0.00003994,0.00039824
 ,0.03409670,-0.00207635,0.00022614,-0.00201924,-0.00003957,0.00011509,
 -0.00028881,0.05273736,-0.32514058,0.20020629,0.00078922,0.00017196,-0
 .00269905,0.00766618,0.00179215,0.00423985,-0.00024256,-0.00009176,0.0
 0021896,0.00029033,-0.00015690,0.00007901,-0.00450006,0.00190468,0.007
 45701,-0.00036133,-0.00013986,0.00012640,-0.00004850,0.00010770,-0.000
 17724,0.00031943,-0.00016180,-0.00005232,-0.05453415,0.32137317,0.0012
 5757,-0.00043595,0.00114028,0.00041181,-0.00006446,0.00094843,-0.02940
 868,0.18865467,-0.13935162,0.00087739,-0.00065091,-0.00030309,-0.00871
 272,0.00705486,-0.00664411,-0.00033120,0.00024833,-0.00082656,-0.00033
 277,0.00011085,-0.00106805,0.00115023,0.01291315,-0.01105374,-0.000123
 53,-0.00026154,-0.00000809,-0.00010392,-0.00015432,-0.00047488,0.00017
 089,-0.00032380,-0.00023510,0.03514493,-0.20709087,0.15787653\\-0.0012
 0952,-0.00141646,0.00093126,-0.00061390,0.00105039,-0.00152018,0.00044
 807,0.00177035,0.00094770,0.00138514,-0.00145707,-0.00006963,0.0000485
 4,-0.00016699,-0.00069259,0.00080942,0.00016146,0.00002424,-0.00021461
 ,0.00017923,0.00062873,-0.00070762,-0.00016742,-0.00020771,-0.00031941
 ,0.00146625,-0.00032482,0.00004413,-0.00152395,0.00019020,0.00016116,0
 .00150304,-0.00050210,0.00016860,-0.00139882,0.00059489\\\@
 The archive entry for this job was punched.


 A SLIP OF THE FOOT YOU MAY SOON RECOVER, BUT A SLIP OF THE TONGUE
 YOU MAY NEVER GET OVER. -- BEN FRANKLIN
 Job cpu time:       0 days  0 hours  0 minutes  0.6 seconds.
 Elapsed time:       0 days  0 hours  0 minutes  1.9 seconds.
 File lengths (MBytes):  RWF=      6 Int=      0 D2E=      0 Chk=      1 Scr=      1
 Normal termination of Gaussian 16 at Tue Feb 13 13:22:41 2024.
