 Entering Gaussian System, Link 0=/opt/g16C01/g16
 Input=TS.gjf
 Output=TS.log
 Initial command:
 /opt/g16C01/l1.exe "/scratch/Gau-1070277.inp" -scrdir="/scratch/"
 Entering Link 1 = /opt/g16C01/l1.exe PID=   1070278.
  
 Copyright (c) 1988-2019, Gaussian, Inc.  All Rights Reserved.
  
 This is part of the Gaussian(R) 16 program.  It is based on
 the Gaussian(R) 09 system (copyright 2009, Gaussian, Inc.),
 the Gaussian(R) 03 system (copyright 2003, Gaussian, Inc.),
 the Gaussian(R) 98 system (copyright 1998, Gaussian, Inc.),
 the Gaussian(R) 94 system (copyright 1995, Gaussian, Inc.),
 the Gaussian 92(TM) system (copyright 1992, Gaussian, Inc.),
 the Gaussian 90(TM) system (copyright 1990, Gaussian, Inc.),
 the Gaussian 88(TM) system (copyright 1988, Gaussian, Inc.),
 the Gaussian 86(TM) system (copyright 1986, Carnegie Mellon
 University), and the Gaussian 82(TM) system (copyright 1983,
 Carnegie Mellon University). Gaussian is a federally registered
 trademark of Gaussian, Inc.
  
 This software contains proprietary and confidential information,
 including trade secrets, belonging to Gaussian, Inc.
  
 This software is provided under written license and may be
 used, copied, transmitted, or stored only in accord with that
 written license.
  
 The following legend is applicable only to US Government
 contracts under FAR:
  
                    RESTRICTED RIGHTS LEGEND
  
 Use, reproduction and disclosure by the US Government is
 subject to restrictions as set forth in subparagraphs (a)
 and (c) of the Commercial Computer Software - Restricted
 Rights clause in FAR 52.227-19.
  
 Gaussian, Inc.
 340 Quinnipiac St., Bldg. 40, Wallingford CT 06492
  
  
 ---------------------------------------------------------------
 Warning -- This program may not be used in any manner that
 competes with the business of Gaussian, Inc. or will provide
 assistance to any competitor of Gaussian, Inc.  The licensee
 of this program is prohibited from giving any competitor of
 Gaussian, Inc. access to this program.  By using this program,
 the user acknowledges that Gaussian, Inc. is engaged in the
 business of creating and licensing software in the field of
 computational chemistry and represents and warrants to the
 licensee that it is not a competitor of Gaussian, Inc. and that
 it will not use this program in any manner prohibited above.
 ---------------------------------------------------------------
  

 Cite this work as:
 Gaussian 16, Revision C.01,
 M. J. Frisch, G. W. Trucks, H. B. Schlegel, G. E. Scuseria, 
 M. A. Robb, J. R. Cheeseman, G. Scalmani, V. Barone, 
 G. A. Petersson, H. Nakatsuji, X. Li, M. Caricato, A. V. Marenich, 
 J. Bloino, B. G. Janesko, R. Gomperts, B. Mennucci, H. P. Hratchian, 
 J. V. Ortiz, A. F. Izmaylov, J. L. Sonnenberg, D. Williams-Young, 
 F. Ding, F. Lipparini, F. Egidi, J. Goings, B. Peng, A. Petrone, 
 T. Henderson, D. Ranasinghe, V. G. Zakrzewski, J. Gao, N. Rega, 
 G. Zheng, W. Liang, M. Hada, M. Ehara, K. Toyota, R. Fukuda, 
 J. Hasegawa, M. Ishida, T. Nakajima, Y. Honda, O. Kitao, H. Nakai, 
 T. Vreven, K. Throssell, J. A. Montgomery, Jr., J. E. Peralta, 
 F. Ogliaro, M. J. Bearpark, J. J. Heyd, E. N. Brothers, K. N. Kudin, 
 V. N. Staroverov, T. A. Keith, R. Kobayashi, J. Normand, 
 K. Raghavachari, A. P. Rendell, J. C. Burant, S. S. Iyengar, 
 J. Tomasi, M. Cossi, J. M. Millam, M. Klene, C. Adamo, R. Cammi, 
 J. W. Ochterski, R. L. Martin, K. Morokuma, O. Farkas, 
 J. B. Foresman, and D. J. Fox, Gaussian, Inc., Wallingford CT, 2019.
 
 ******************************************
 Gaussian 16:  ES64L-G16RevC.01  3-Jul-2019
                13-Feb-2024 
 ******************************************
 %nprocs=1
 Will use up to    1 processors via shared memory.
 ----------------------------------------------------------------------
 # external="xtb-gaussian -P 4" opt=(calcall,nomicro,recalcfc=5,ts,noei
 gentest,tight,maxcycle=500,maxstep=1)
 ----------------------------------------------------------------------
 1/5=1,6=500,7=10,8=1,10=4,11=1,18=20,26=1,38=1,71=5/1,3;
 2/9=110,12=2,17=6,18=5,40=1/2;
 3/11=9,25=1,30=1,41=9900000,43=2,71=2,140=1/1;
 4/20=17,22=2,24=3,68=10,113=1,114=1/2;
 6/7=2,8=2,9=2,10=2,18=1/1;
 7/25=1,44=-1/16;
 1/5=1,6=500,7=10,8=1,10=4,11=1,18=20,26=1,71=5/3(3);
 2/9=110/2;
 7/8=1,9=1,25=1,44=-1/16;
 99//99;
 2/9=110/2;
 3/11=9,25=1,30=1,41=9900000,43=2,71=2,140=1/1;
 4/16=2,20=17,22=2,24=3,68=10,113=1,114=1/2;
 7/25=1,44=-1/16;
 1/5=1,6=500,7=10,8=1,10=4,11=1,18=20,26=1,71=5/3(-4);
 2/9=110/2;
 6/7=2,8=2,9=2,10=2,18=1/1;
 7/8=1,9=1,25=1,44=-1/16;
 99//99;
 -----------
 Simple test
 -----------
 Symbolic Z-matrix:
 Charge =  0 Multiplicity = 1
 O                     0.77145   0.57138   1.92088 
 O                     1.86438   0.10692   0.00755 
 O                     2.5755    0.95551   2.94927 
 O                     3.68583   0.48633   1.01524 
 H                     1.62461   0.75304   2.40721 
 H                     1.32157   0.33759   0.9578 
 H                     2.76361   0.29423   0.50503 
 H                     3.1501    0.71271   1.9484 
 H                     0.69151   1.50905   1.73118 
 H                     2.10084  -0.79835  -0.20736 
 H                     3.69989   1.40298   0.73035 
 H                     2.73426   0.12839   3.40999 
 

 GradGradGradGradGradGradGradGradGradGradGradGradGradGradGradGradGradGrad
 Berny optimization.
 Initialization pass.
                           ----------------------------
                           !    Initial Parameters    !
                           ! (Angstroms and Degrees)  !
 --------------------------                            --------------------------
 ! Name  Definition              Value          Derivative Info.                !
 --------------------------------------------------------------------------------
 ! R1    R(1,5)                  0.9987         calculate D2E/DX2 analytically  !
 ! R2    R(1,6)                  1.1335         calculate D2E/DX2 analytically  !
 ! R3    R(1,9)                  0.96           calculate D2E/DX2 analytically  !
 ! R4    R(2,6)                  1.1184         calculate D2E/DX2 analytically  !
 ! R5    R(2,7)                  1.0446         calculate D2E/DX2 analytically  !
 ! R6    R(2,10)                 0.96           calculate D2E/DX2 analytically  !
 ! R7    R(3,5)                  1.1131         calculate D2E/DX2 analytically  !
 ! R8    R(3,12)                 0.96           calculate D2E/DX2 analytically  !
 ! R9    R(4,7)                  1.0713         calculate D2E/DX2 analytically  !
 ! R10   R(4,8)                  1.0996         calculate D2E/DX2 analytically  !
 ! R11   R(4,11)                 0.96           calculate D2E/DX2 analytically  !
 ! A1    A(5,1,6)               92.1014         calculate D2E/DX2 analytically  !
 ! A2    A(5,1,9)               89.41           calculate D2E/DX2 analytically  !
 ! A3    A(6,1,9)               94.2426         calculate D2E/DX2 analytically  !
 ! A4    A(6,2,7)               88.6352         calculate D2E/DX2 analytically  !
 ! A5    A(6,2,10)             120.2816         calculate D2E/DX2 analytically  !
 ! A6    A(7,2,10)              93.6503         calculate D2E/DX2 analytically  !
 ! A7    A(5,3,12)             102.6071         calculate D2E/DX2 analytically  !
 ! A8    A(7,4,8)               91.2419         calculate D2E/DX2 analytically  !
 ! A9    A(7,4,11)              92.4349         calculate D2E/DX2 analytically  !
 ! A10   A(8,4,11)              93.578          calculate D2E/DX2 analytically  !
 ! A11   L(1,5,3,7,-1)         180.0005         calculate D2E/DX2 analytically  !
 ! A12   L(1,6,2,8,-1)         179.9991         calculate D2E/DX2 analytically  !
 ! A13   L(2,7,4,5,-1)         179.9996         calculate D2E/DX2 analytically  !
 ! A14   L(1,5,3,7,-2)         180.0            calculate D2E/DX2 analytically  !
 ! A15   L(1,6,2,8,-2)         180.0            calculate D2E/DX2 analytically  !
 ! A16   L(2,7,4,5,-2)         180.0            calculate D2E/DX2 analytically  !
 ! D1    D(5,1,2,7)              0.0            calculate D2E/DX2 analytically  !
 ! D2    D(5,1,2,10)            93.4301         calculate D2E/DX2 analytically  !
 ! D3    D(9,1,2,7)             89.5639         calculate D2E/DX2 analytically  !
 ! D4    D(9,1,2,10)          -177.006          calculate D2E/DX2 analytically  !
 ! D5    D(6,1,3,12)           -98.36           calculate D2E/DX2 analytically  !
 ! D6    D(9,1,3,12)           167.416          calculate D2E/DX2 analytically  !
 ! D7    D(6,2,4,8)              0.0            calculate D2E/DX2 analytically  !
 ! D8    D(6,2,4,11)           -93.635          calculate D2E/DX2 analytically  !
 ! D9    D(10,2,4,8)          -120.2583         calculate D2E/DX2 analytically  !
 ! D10   D(10,2,4,11)          146.1067         calculate D2E/DX2 analytically  !
 --------------------------------------------------------------------------------
 Trust Radius=1.00D-02 FncErr=1.00D-07 GrdErr=1.00D-07 EigMax=2.50D+02 EigMin=1.00D-04
 Number of steps in this run=    100 maximum allowed number of steps=    100.
 Search for a saddle point of order  1.
 GradGradGradGradGradGradGradGradGradGradGradGradGradGradGradGradGradGrad

                          Input orientation:                          
 ---------------------------------------------------------------------
 Center     Atomic      Atomic             Coordinates (Angstroms)
 Number     Number       Type             X           Y           Z
 ---------------------------------------------------------------------
      1          8           0        0.771450    0.571384    1.920879
      2          8           0        1.864377    0.106916    0.007554
      3          8           0        2.575505    0.955511    2.949270
      4          8           0        3.685834    0.486331    1.015243
      5          1           0        1.624611    0.753042    2.407214
      6          1           0        1.321567    0.337593    0.957803
      7          1           0        2.763607    0.294227    0.505033
      8          1           0        3.150105    0.712709    1.948403
      9          1           0        0.691507    1.509053    1.731179
     10          1           0        2.100840   -0.798345   -0.207359
     11          1           0        3.699887    1.402975    0.730346
     12          1           0        2.734265    0.128390    3.409993
 ---------------------------------------------------------------------
                    Distance matrix (angstroms):
                    1          2          3          4          5
     1  O    0.000000
     2  O    2.251895   0.000000
     3  O    2.111813   3.143168   0.000000
     4  O    3.053038   2.115915   2.278908   0.000000
     5  H    0.998702   2.496664   1.113112   2.501471   0.000000
     6  H    1.133491   1.118404   2.433131   2.369637   1.537929
     7  H    2.459700   1.044598   2.539089   1.071317   2.264093
     8  H    2.383008   2.405613   1.179344   1.099564   1.593507
     9  H    0.960000   2.512467   2.310758   3.244152   1.378137
    10  H    2.858816   0.960000   3.642200   2.378519   3.077269
    11  H    3.268739   2.360359   2.527466   0.960000   2.746101
    12  H    2.503267   3.511945   0.960000   2.601622   1.620829
                    6          7          8          9         10
     6  H    0.000000
     7  H    1.512072   0.000000
     8  H    2.113185   1.551717   0.000000
     9  H    1.538637   2.696820   2.593464   0.000000
    10  H    1.804223   1.463037   2.833999   3.326895   0.000000
    11  H    2.615948   1.468573   1.504125   3.172266   2.877855
    12  H    2.837731   2.909838   1.628065   2.982869   3.787519
                   11         12
    11  H    0.000000
    12  H    3.120498   0.000000
 Stoichiometry    H8O4
 Framework group  C1[X(H8O4)]
 Deg. of freedom    30
 Full point group                 C1      NOp   1
 Largest Abelian subgroup         C1      NOp   1
 Largest concise Abelian subgroup C1      NOp   1
                         Standard orientation:                         
 ---------------------------------------------------------------------
 Center     Atomic      Atomic             Coordinates (Angstroms)
 Number     Number       Type             X           Y           Z
 ---------------------------------------------------------------------
      1          8           0        0.823931   -1.289079   -0.013045
      2          8           0       -1.365073   -0.760646   -0.005941
      3          8           0        1.394455    0.744180   -0.002215
      4          8           0       -0.819648    1.283734    0.005000
      5          1           0        1.093734   -0.327525   -0.007923
      6          1           0       -0.277906   -1.023101   -0.009469
      7          1           0       -1.095808    0.248637   -0.000540
      8          1           0        0.248648    1.023401    0.001519
      9          1           0        0.896435   -1.304254    0.944093
     10          1           0       -1.848793   -0.690432   -0.832188
     11          1           0       -0.866132    1.333224    0.962596
     12          1           0        1.580508    0.914537   -0.928478
 ---------------------------------------------------------------------
 Rotational constants (GHZ):           6.1966733           5.2641889           2.9596594
 Standard basis: STO-3G (5D, 7F)
 There are    28 symmetry adapted cartesian basis functions of A   symmetry.
 There are    28 symmetry adapted basis functions of A   symmetry.
    28 basis functions,    84 primitive gaussians,    28 cartesian basis functions
    20 alpha electrons       20 beta electrons
       nuclear repulsion energy       171.9453399358 Hartrees.
 NAtoms=   12 NActive=   12 NUniq=   12 SFac= 1.00D+00 NAtFMM=   60 NAOKFM=F Big=F
 Integral buffers will be    131072 words long.
 Raffenetti 1 integral format.
 Two-electron integral symmetry is turned on.
 External calculation of energy, first and second derivatives.
 Running external command "xtb-gaussian -P 4 R"
         input file       "/scratch/Gau-1070278.EIn"
         output file      "/scratch/Gau-1070278.EOu"
         message file     "/scratch/Gau-1070278.EMs"
         fchk file        "/scratch/Gau-1070278.EFC"
         mat. el file     "/scratch/Gau-1070278.EUF"

 ExternalExternalExternalExternalExternalExternalExternalExternalExternalExternal
 Output from external command:
 "xtb-gaussian -P 4 R /scratch/Gau-1070278.EIn /scratch/Gau-1070278.EOu /scratch/Gau-1070278.EMs /scratch/Gau-1070278.EFC /scratch/Gau-1070278.EUF"
 normal termination of xtb
  
 ------- xtb command was ---------
 ?> xtb ./Gau-1070278.EIn -P 4 --hess --charge 0 --alpb water >/dev/null 2>Gau-1070278.EMs
 ---------------------------------
              Control returned to Gaussian.
 ~~~~~~~~~~~~~~~~~~~~~~~~~~~~~~~~~~~~~~~~~~~~~~~~~~~~~~~~~~~~~~~~~~~~~~~~~
 ExternalExternalExternalExternalExternalExternalExternalExternalExternalExternal

 Recovered energy= -20.1943942640     dipole=     -0.454211106472     -0.009406688515      0.167686907633
 Energy=    -20.1943943     NIter=   0.
 Dipole moment=      -0.454211      -0.009407       0.167687
 ***** Axes restored to original set *****
 -------------------------------------------------------------------
 Center     Atomic                   Forces (Hartrees/Bohr)
 Number     Number              X              Y              Z
 -------------------------------------------------------------------
      1        8          -0.121173809    0.002243173   -0.025123500
      2        8          -0.055205520   -0.026072162   -0.093360201
      3        8           0.063498651    0.018005308    0.077804201
      4        8           0.105822269    0.020139877    0.006874170
      5        1           0.020704749   -0.003689914    0.039069112
      6        1          -0.021280712   -0.021148122   -0.010024537
      7        1           0.008781519   -0.004670682   -0.013431534
      8        1           0.013085141    0.000490825    0.022866620
      9        1          -0.024768111    0.013841618   -0.002371556
     10        1          -0.013093514   -0.011862111   -0.006625290
     11        1           0.020629030    0.012253343   -0.007885851
     12        1           0.003000309    0.000468847    0.012208365
 -------------------------------------------------------------------
 Cartesian Forces:  Max     0.121173809 RMS     0.039345227
 FormGI is forming the generalized inverse of G from B-inverse, IUseBI=4.

 GradGradGradGradGradGradGradGradGradGradGradGradGradGradGradGradGradGrad
 Berny optimization.
 Internal  Forces:  Max     0.221796502 RMS     0.086831976
 Search for a saddle point.
 Step number   1 out of a maximum of  100
 All quantities printed in internal units (Hartrees-Bohrs-Radians)
 Swapping is turned off.
 Second derivative matrix not updated -- analytic derivatives used.
 ITU=  0
     Eigenvalues ---   -0.04459  -0.02187  -0.01104   0.00795   0.00993
     Eigenvalues ---    0.02976   0.04029   0.04305   0.05408   0.05926
     Eigenvalues ---    0.06265   0.06798   0.08410   0.08699   0.09965
     Eigenvalues ---    0.11594   0.11689   0.15580   0.17071   0.17855
     Eigenvalues ---    0.32916   0.41016   0.46518   0.46775   0.47070
     Eigenvalues ---    0.47388   0.52296   0.61359   0.77999  10.31516
 Eigenvectors required to have negative eigenvalues:
                          D1        D5        D2        D3        A15
   1                   -0.47469   0.39839  -0.37613  -0.30774   0.30303
                          D6        D4        D7        A2        A16
   1                    0.28000  -0.20918   0.18012   0.16794   0.16383
 RFO step:  Lambda0=4.088538844D-03 Lambda=-1.40518859D-01.
 Linear search not attempted -- option 19 set.
 Maximum step size (   0.010) exceeded in Quadratic search.
    -- Step size scaled by   0.015
 Iteration  1 RMS(Cart)=  0.00383267 RMS(Int)=  0.00000677
 Iteration  2 RMS(Cart)=  0.00001106 RMS(Int)=  0.00000272
 Iteration  3 RMS(Cart)=  0.00000000 RMS(Int)=  0.00000272
 Variable       Old X    -DE/DX   Delta X   Delta X   Delta X     New X
                                 (Linear)    (Quad)   (Total)
    R1        1.88727   0.14004   0.00000   0.00238   0.00238   1.88965
    R2        2.14199   0.12119   0.00000   0.00379   0.00379   2.14578
    R3        1.81414   0.01604   0.00000   0.00018   0.00018   1.81432
    R4        2.11348   0.11864   0.00000  -0.00007  -0.00007   2.11340
    R5        1.97400   0.13675   0.00000   0.00329   0.00329   1.97730
    R6        1.81414   0.00943   0.00000   0.00012   0.00012   1.81426
    R7        2.10348   0.10400   0.00000   0.00245   0.00245   2.10593
    R8        1.81414   0.00596   0.00000  -0.00004  -0.00004   1.81410
    R9        2.02450   0.13643   0.00000   0.00195   0.00195   2.02644
   R10        2.07788   0.01313   0.00000   0.00237   0.00237   2.08025
   R11        1.81414   0.01435   0.00000   0.00017   0.00017   1.81431
    A1        1.60747   0.21841   0.00000  -0.00126  -0.00126   1.60621
    A2        1.56050   0.01065   0.00000   0.00064   0.00064   1.56114
    A3        1.64484   0.01015   0.00000   0.00021   0.00021   1.64505
    A4        1.54698   0.22180   0.00000   0.00312   0.00312   1.55010
    A5        2.09931  -0.01470   0.00000  -0.00502  -0.00502   2.09429
    A6        1.63451  -0.07538   0.00000   0.00145   0.00146   1.63596
    A7        1.79083   0.01355   0.00000   0.00037   0.00037   1.79121
    A8        1.59247   0.04593   0.00000   0.00023   0.00023   1.59271
    A9        1.61329   0.02848   0.00000   0.00181   0.00181   1.61510
   A10        1.63324   0.00675   0.00000   0.00066   0.00066   1.63391
   A11        3.14160   0.09281   0.00000  -0.00074  -0.00074   3.14086
   A12        3.14158   0.19205   0.00000  -0.00020  -0.00020   3.14137
   A13        3.14158   0.13668   0.00000  -0.00203  -0.00203   3.13955
   A14        3.14159   0.00673   0.00000  -0.00064  -0.00064   3.14095
   A15        3.14159   0.00454   0.00000  -0.00134  -0.00134   3.14026
   A16        3.14159   0.00842   0.00000  -0.00178  -0.00178   3.13982
    D1        0.00000  -0.07042   0.00000  -0.00004  -0.00004  -0.00004
    D2        1.63066   0.02792   0.00000   0.00333   0.00332   1.63399
    D3        1.56319  -0.03623   0.00000   0.00053   0.00054   1.56372
    D4       -3.08934   0.06211   0.00000   0.00390   0.00390  -3.08544
    D5       -1.71671  -0.00299   0.00000  -0.00093  -0.00093  -1.71763
    D6        2.92196  -0.01149   0.00000  -0.00116  -0.00116   2.92080
    D7       -0.00000   0.00401   0.00000  -0.00201  -0.00201  -0.00201
    D8       -1.63424  -0.00823   0.00000  -0.00271  -0.00271  -1.63694
    D9       -2.09890   0.00232   0.00000   0.00289   0.00288  -2.09602
   D10        2.55004  -0.00992   0.00000   0.00219   0.00219   2.55223
         Item               Value     Threshold  Converged?
 Maximum Force            0.221797     0.000015     NO 
 RMS     Force            0.086832     0.000010     NO 
 Maximum Displacement     0.013500     0.000060     NO 
 RMS     Displacement     0.003838     0.000040     NO 
 Predicted change in Energy=-2.165191D-03
 GradGradGradGradGradGradGradGradGradGradGradGradGradGradGradGradGradGrad

                          Input orientation:                          
 ---------------------------------------------------------------------
 Center     Atomic      Atomic             Coordinates (Angstroms)
 Number     Number       Type             X           Y           Z
 ---------------------------------------------------------------------
      1          8           0        0.768155    0.570106    1.921177
      2          8           0        1.864255    0.107820    0.006824
      3          8           0        2.574944    0.955590    2.949510
      4          8           0        3.689029    0.486102    1.014758
      5          1           0        1.622469    0.752166    2.407924
      6          1           0        1.320222    0.337909    0.956470
      7          1           0        2.765938    0.295328    0.503450
      8          1           0        3.152622    0.714553    1.948506
      9          1           0        0.686581    1.507960    1.732602
     10          1           0        2.097109   -0.799114   -0.205251
     11          1           0        3.707032    1.402652    0.729470
     12          1           0        2.735201    0.128714    3.410116
 ---------------------------------------------------------------------
                    Distance matrix (angstroms):
                    1          2          3          4          5
     1  O    0.000000
     2  O    2.253862   0.000000
     3  O    2.114369   3.143755   0.000000
     4  O    3.059437   2.118686   2.281418   0.000000
     5  H    0.999961   2.497784   1.114408   2.506466   0.000000
     6  H    1.135498   1.118365   2.434762   2.374153   1.539377
     7  H    2.465074   1.046341   2.540795   1.072347   2.267872
     8  H    2.388994   2.407933   1.180602   1.100821   1.598076
     9  H    0.960097   2.515079   2.313416   3.251797   1.379555
    10  H    2.857022   0.960065   3.641405   2.382102   3.075782
    11  H    3.278764   2.365298   2.531811   0.960092   2.754222
    12  H    2.506199   3.513031   0.959981   2.602932   1.622114
                    6          7          8          9         10
     6  H    0.000000
     7  H    1.515630   0.000000
     8  H    2.117471   1.553532   0.000000
     9  H    1.540423   2.702780   2.599513   0.000000
    10  H    1.801656   1.465398   2.836188   3.326778   0.000000
    11  H    2.623369   1.470683   1.505622   3.184413   2.883284
    12  H    2.840125   2.911600   1.629034   2.985501   3.786675
                   11         12
    11  H    0.000000
    12  H    3.123017   0.000000
 Stoichiometry    H8O4
 Framework group  C1[X(H8O4)]
 Deg. of freedom    30
 Full point group                 C1      NOp   1
 Largest Abelian subgroup         C1      NOp   1
 Largest concise Abelian subgroup C1      NOp   1
                         Standard orientation:                         
 ---------------------------------------------------------------------
 Center     Atomic      Atomic             Coordinates (Angstroms)
 Number     Number       Type             X           Y           Z
 ---------------------------------------------------------------------
      1          8           0        0.836340   -1.284770   -0.013431
      2          8           0       -1.358584   -0.772782   -0.005196
      3          8           0        1.388273    0.756257   -0.001733
      4          8           0       -0.832327    1.279484    0.004092
      5          1           0        1.097742   -0.319594   -0.008238
      6          1           0       -0.269490   -1.026954   -0.008531
      7          1           0       -1.099731    0.241019    0.000336
      8          1           0        0.239477    1.028405    0.003018
      9          1           0        0.910103   -1.300294    0.943703
     10          1           0       -1.839321   -0.710042   -0.833858
     11          1           0       -0.881139    1.332503    0.961476
     12          1           0        1.572743    0.929442   -0.927768
 ---------------------------------------------------------------------
 Rotational constants (GHZ):           6.1750077           5.2584056           2.9528321
 Standard basis: STO-3G (5D, 7F)
 There are    28 symmetry adapted cartesian basis functions of A   symmetry.
 There are    28 symmetry adapted basis functions of A   symmetry.
    28 basis functions,    84 primitive gaussians,    28 cartesian basis functions
    20 alpha electrons       20 beta electrons
       nuclear repulsion energy       171.7631025840 Hartrees.
 NAtoms=   12 NActive=   12 NUniq=   12 SFac= 1.00D+00 NAtFMM=   60 NAOKFM=F Big=F
 Integral buffers will be    131072 words long.
 Raffenetti 1 integral format.
 Two-electron integral symmetry is turned on.
 External calculation of energy and first derivatives.
 Running external command "xtb-gaussian -P 4 R"
         input file       "/scratch/Gau-1070278.EIn"
         output file      "/scratch/Gau-1070278.EOu"
         message file     "/scratch/Gau-1070278.EMs"
         fchk file        "/scratch/Gau-1070278.EFC"
         mat. el file     "/scratch/Gau-1070278.EUF"

 ExternalExternalExternalExternalExternalExternalExternalExternalExternalExternal
 Output from external command:
 "xtb-gaussian -P 4 R /scratch/Gau-1070278.EIn /scratch/Gau-1070278.EOu /scratch/Gau-1070278.EMs /scratch/Gau-1070278.EFC /scratch/Gau-1070278.EUF"
 normal termination of xtb
  
 ------- xtb command was ---------
 ?> xtb ./Gau-1070278.EIn -P 4 --grad --charge 0 --alpb water >/dev/null 2>Gau-1070278.EMs
 ---------------------------------
              Control returned to Gaussian.
 ~~~~~~~~~~~~~~~~~~~~~~~~~~~~~~~~~~~~~~~~~~~~~~~~~~~~~~~~~~~~~~~~~~~~~~~~~
 ExternalExternalExternalExternalExternalExternalExternalExternalExternalExternal

 Recovered energy= -20.1965593202     dipole=     -0.456818042330     -0.009397212883      0.167775149650
 Energy=    -20.1965593     NIter=   0.
 Dipole moment=      -0.456818      -0.009397       0.167775
 ***** Axes restored to original set *****
 -------------------------------------------------------------------
 Center     Atomic                   Forces (Hartrees/Bohr)
 Number     Number              X              Y              Z
 -------------------------------------------------------------------
      1        8          -0.119595879    0.002391425   -0.024655306
      2        8          -0.054237183   -0.025680006   -0.092124058
      3        8           0.062958354    0.017725500    0.076544593
      4        8           0.104400544    0.020086910    0.006880943
      5        1           0.020394667   -0.003788378    0.038656892
      6        1          -0.021065524   -0.020962055   -0.010054082
      7        1           0.008577576   -0.004661447   -0.013458014
      8        1           0.012792688    0.000460704    0.022771952
      9        1          -0.024668933    0.013601701   -0.002320945
     10        1          -0.013021102   -0.011682718   -0.006530770
     11        1           0.020521101    0.011990468   -0.007801114
     12        1           0.002943691    0.000517896    0.012089911
 -------------------------------------------------------------------
 Cartesian Forces:  Max     0.119595879 RMS     0.038833086

 GradGradGradGradGradGradGradGradGradGradGradGradGradGradGradGradGradGrad
 Berny optimization.
 FormGI is forming the generalized inverse of G from B-inverse, IUseBI=4.
 Internal  Forces:  Max     0.219019319 RMS     0.085604018
 Search for a saddle point.
 Step number   2 out of a maximum of  100
 All quantities printed in internal units (Hartrees-Bohrs-Radians)
 Swapping is turned off.
 Update second derivatives using D2CorX and points    1    2
 ITU=  0  0
     Eigenvalues ---   -0.04443  -0.02106  -0.00990   0.00797   0.00994
     Eigenvalues ---    0.02975   0.04010   0.04306   0.05407   0.05933
     Eigenvalues ---    0.06267   0.06803   0.08410   0.08693   0.09964
     Eigenvalues ---    0.11595   0.11686   0.15577   0.17077   0.17854
     Eigenvalues ---    0.32908   0.41016   0.46518   0.46775   0.47071
     Eigenvalues ---    0.47384   0.52289   0.61237   0.78006  10.31580
 Eigenvectors required to have negative eigenvalues:
                          D1        D5        D2        D3        A15
   1                   -0.47878   0.40023  -0.37215  -0.31140   0.29780
                          D6        D4        D7        A2        A16
   1                    0.28267  -0.20477   0.18099   0.16854   0.15885
 RFO step:  Lambda0=4.145157391D-03 Lambda=-1.37889316D-01.
 Linear search not attempted -- option 19 set.
 Maximum step size (   0.010) exceeded in Quadratic search.
    -- Step size scaled by   0.016
 Iteration  1 RMS(Cart)=  0.00386067 RMS(Int)=  0.00000657
 Iteration  2 RMS(Cart)=  0.00001077 RMS(Int)=  0.00000259
 Iteration  3 RMS(Cart)=  0.00000000 RMS(Int)=  0.00000259
 Variable       Old X    -DE/DX   Delta X   Delta X   Delta X     New X
                                 (Linear)    (Quad)   (Total)
    R1        1.88965   0.13832   0.00000   0.00245   0.00245   1.89210
    R2        2.14578   0.11964   0.00000   0.00386   0.00386   2.14964
    R3        1.81432   0.01584   0.00000   0.00020   0.00020   1.81452
    R4        2.11340   0.11704   0.00000  -0.00006  -0.00006   2.11335
    R5        1.97730   0.13505   0.00000   0.00334   0.00334   1.98063
    R6        1.81426   0.00931   0.00000   0.00014   0.00014   1.81440
    R7        2.10593   0.10273   0.00000   0.00250   0.00250   2.10842
    R8        1.81410   0.00586   0.00000  -0.00004  -0.00004   1.81406
    R9        2.02644   0.13476   0.00000   0.00201   0.00201   2.02845
   R10        2.08025   0.01318   0.00000   0.00236   0.00236   2.08261
   R11        1.81431   0.01415   0.00000   0.00017   0.00017   1.81448
    A1        1.60621   0.21507   0.00000  -0.00121  -0.00121   1.60500
    A2        1.56114   0.01052   0.00000   0.00062   0.00062   1.56176
    A3        1.64505   0.01009   0.00000   0.00022   0.00022   1.64527
    A4        1.55010   0.21902   0.00000   0.00307   0.00308   1.55318
    A5        2.09429  -0.01488   0.00000  -0.00488  -0.00488   2.08941
    A6        1.63596  -0.07322   0.00000   0.00142   0.00143   1.63739
    A7        1.79121   0.01340   0.00000   0.00033   0.00033   1.79153
    A8        1.59271   0.04537   0.00000   0.00026   0.00026   1.59297
    A9        1.61510   0.02825   0.00000   0.00186   0.00186   1.61697
   A10        1.63391   0.00663   0.00000   0.00069   0.00069   1.63460
   A11        3.14086   0.09128   0.00000  -0.00073  -0.00073   3.14013
   A12        3.14137   0.18924   0.00000  -0.00025  -0.00025   3.14113
   A13        3.13955   0.13452   0.00000  -0.00198  -0.00198   3.13757
   A14        3.14095   0.00662   0.00000  -0.00058  -0.00058   3.14037
   A15        3.14026   0.00450   0.00000  -0.00145  -0.00145   3.13881
   A16        3.13982   0.00828   0.00000  -0.00181  -0.00181   3.13801
    D1       -0.00004  -0.06921   0.00000   0.00012   0.00013   0.00009
    D2        1.63399   0.02711   0.00000   0.00337   0.00336   1.63735
    D3        1.56372  -0.03524   0.00000   0.00067   0.00068   1.56440
    D4       -3.08544   0.06108   0.00000   0.00392   0.00391  -3.08152
    D5       -1.71763  -0.00295   0.00000  -0.00119  -0.00119  -1.71883
    D6        2.92080  -0.01146   0.00000  -0.00143  -0.00143   2.91937
    D7       -0.00201   0.00415   0.00000  -0.00194  -0.00194  -0.00395
    D8       -1.63694  -0.00818   0.00000  -0.00267  -0.00267  -1.63961
    D9       -2.09602   0.00240   0.00000   0.00280   0.00280  -2.09322
   D10        2.55223  -0.00993   0.00000   0.00208   0.00208   2.55431
         Item               Value     Threshold  Converged?
 Maximum Force            0.219019     0.000015     NO 
 RMS     Force            0.085604     0.000010     NO 
 Maximum Displacement     0.013664     0.000060     NO 
 RMS     Displacement     0.003866     0.000040     NO 
 Predicted change in Energy=-2.173682D-03
 GradGradGradGradGradGradGradGradGradGradGradGradGradGradGradGradGradGrad

                          Input orientation:                          
 ---------------------------------------------------------------------
 Center     Atomic      Atomic             Coordinates (Angstroms)
 Number     Number       Type             X           Y           Z
 ---------------------------------------------------------------------
      1          8           0        0.764868    0.568738    1.921508
      2          8           0        1.864085    0.108741    0.006022
      3          8           0        2.574430    0.955795    2.949756
      4          8           0        3.692224    0.485792    1.014260
      5          1           0        1.620361    0.751332    2.408647
      6          1           0        1.318841    0.338249    0.955077
      7          1           0        2.768226    0.296420    0.501837
      8          1           0        3.155200    0.716257    1.948630
      9          1           0        0.681523    1.506779    1.734107
     10          1           0        2.093410   -0.799801   -0.203319
     11          1           0        3.714262    1.402255    0.728669
     12          1           0        2.736125    0.129227    3.410363
 ---------------------------------------------------------------------
                    Distance matrix (angstroms):
                    1          2          3          4          5
     1  O    0.000000
     2  O    2.255873   0.000000
     3  O    2.116985   3.144466   0.000000
     4  O    3.065843   2.121510   2.283968   0.000000
     5  H    1.001256   2.498986   1.115729   2.511462   0.000000
     6  H    1.137541   1.118334   2.436517   2.378701   1.540915
     7  H    2.470438   1.048106   2.542566   1.073412   2.271665
     8  H    2.395033   2.410348   1.181916   1.102069   1.602677
     9  H    0.960201   2.517785   2.316136   3.259589   1.380986
    10  H    2.855313   0.960137   3.640794   2.385677   3.074436
    11  H    3.288851   2.370349   2.536093   0.960184   2.762326
    12  H    2.509126   3.514315   0.959958   2.604337   1.623385
                    6          7          8          9         10
     6  H    0.000000
     7  H    1.519175   0.000000
     8  H    2.121851   1.555385   0.000000
     9  H    1.542247   2.708835   2.605767   0.000000
    10  H    1.799166   1.467761   2.838435   3.326764   0.000000
    11  H    2.630858   1.472857   1.507133   3.196770   2.888740
    12  H    2.842677   2.913504   1.629997   2.988122   3.786142
                   11         12
    11  H    0.000000
    12  H    3.125513   0.000000
 Stoichiometry    H8O4
 Framework group  C1[X(H8O4)]
 Deg. of freedom    30
 Full point group                 C1      NOp   1
 Largest Abelian subgroup         C1      NOp   1
 Largest concise Abelian subgroup C1      NOp   1
                         Standard orientation:                         
 ---------------------------------------------------------------------
 Center     Atomic      Atomic             Coordinates (Angstroms)
 Number     Number       Type             X           Y           Z
 ---------------------------------------------------------------------
      1          8           0        0.848836   -1.280280   -0.013909
      2          8           0       -1.351977   -0.785010   -0.004378
      3          8           0        1.381970    0.768434   -0.001163
      4          8           0       -0.845100    1.275044    0.003113
      5          1           0        1.101736   -0.311504   -0.008531
      6          1           0       -0.260993   -1.030802   -0.007534
      7          1           0       -1.103628    0.233233    0.001231
      8          1           0        0.230148    1.033391    0.004359
      9          1           0        0.923974   -1.296240    0.943214
     10          1           0       -1.829758   -0.729669   -0.835357
     11          1           0       -0.896232    1.331667    0.960260
     12          1           0        1.564931    0.944419   -0.926945
 ---------------------------------------------------------------------
 Rotational constants (GHZ):           6.1534666           5.2522225           2.9458734
 Standard basis: STO-3G (5D, 7F)
 There are    28 symmetry adapted cartesian basis functions of A   symmetry.
 There are    28 symmetry adapted basis functions of A   symmetry.
    28 basis functions,    84 primitive gaussians,    28 cartesian basis functions
    20 alpha electrons       20 beta electrons
       nuclear repulsion energy       171.5778342952 Hartrees.
 NAtoms=   12 NActive=   12 NUniq=   12 SFac= 1.00D+00 NAtFMM=   60 NAOKFM=F Big=F
 Integral buffers will be    131072 words long.
 Raffenetti 1 integral format.
 Two-electron integral symmetry is turned on.
 External calculation of energy and first derivatives.
 Running external command "xtb-gaussian -P 4 R"
         input file       "/scratch/Gau-1070278.EIn"
         output file      "/scratch/Gau-1070278.EOu"
         message file     "/scratch/Gau-1070278.EMs"
         fchk file        "/scratch/Gau-1070278.EFC"
         mat. el file     "/scratch/Gau-1070278.EUF"

 ExternalExternalExternalExternalExternalExternalExternalExternalExternalExternal
 Output from external command:
 "xtb-gaussian -P 4 R /scratch/Gau-1070278.EIn /scratch/Gau-1070278.EOu /scratch/Gau-1070278.EMs /scratch/Gau-1070278.EFC /scratch/Gau-1070278.EUF"
 normal termination of xtb
  
 ------- xtb command was ---------
 ?> xtb ./Gau-1070278.EIn -P 4 --grad --charge 0 --alpb water >/dev/null 2>Gau-1070278.EMs
 ---------------------------------
              Control returned to Gaussian.
 ~~~~~~~~~~~~~~~~~~~~~~~~~~~~~~~~~~~~~~~~~~~~~~~~~~~~~~~~~~~~~~~~~~~~~~~~~
 ExternalExternalExternalExternalExternalExternalExternalExternalExternalExternal

 Recovered energy= -20.1987325709     dipole=     -0.459454472673     -0.009422639780      0.167902107097
 Energy=    -20.1987326     NIter=   0.
 Dipole moment=      -0.459454      -0.009423       0.167902
 ***** Axes restored to original set *****
 -------------------------------------------------------------------
 Center     Atomic                   Forces (Hartrees/Bohr)
 Number     Number              X              Y              Z
 -------------------------------------------------------------------
      1        8          -0.117990862    0.002538377   -0.024186206
      2        8          -0.053265797   -0.025279577   -0.090881169
      3        8           0.062410800    0.017448689    0.075265403
      4        8           0.102961736    0.020025104    0.006891319
      5        1           0.020086307   -0.003882626    0.038234297
      6        1          -0.020846952   -0.020780246   -0.010076620
      7        1           0.008374414   -0.004648577   -0.013474471
      8        1           0.012495827    0.000432872    0.022672208
      9        1          -0.024574709    0.013351786   -0.002265976
     10        1          -0.012952614   -0.011496848   -0.006432866
     11        1           0.020417208    0.011722325   -0.007719368
     12        1           0.002884642    0.000568720    0.011973448
 -------------------------------------------------------------------
 Cartesian Forces:  Max     0.117990862 RMS     0.038315047

 GradGradGradGradGradGradGradGradGradGradGradGradGradGradGradGradGradGrad
 Berny optimization.
 FormGI is forming the generalized inverse of G from B-inverse, IUseBI=4.
 Internal  Forces:  Max     0.216166203 RMS     0.084357403
 Search for a saddle point.
 Step number   3 out of a maximum of  100
 All quantities printed in internal units (Hartrees-Bohrs-Radians)
 Swapping is turned off.
 Update second derivatives using D2CorX and points    1    2    3
 ITU=  0  0  0
     Eigenvalues ---   -0.04449  -0.02067  -0.00891   0.00801   0.00995
     Eigenvalues ---    0.02980   0.03991   0.04306   0.05414   0.05926
     Eigenvalues ---    0.06265   0.06819   0.08411   0.08680   0.09963
     Eigenvalues ---    0.11600   0.11683   0.15578   0.17083   0.17851
     Eigenvalues ---    0.32896   0.41015   0.46512   0.46775   0.47071
     Eigenvalues ---    0.47383   0.52277   0.61022   0.78006  10.31663
 Eigenvectors required to have negative eigenvalues:
                          D1        D5        D2        D3        A15
   1                   -0.48043   0.39989  -0.36836  -0.31428   0.29761
                          D6        D4        D7        A2        A16
   1                    0.28398  -0.20221   0.18095   0.16736   0.15809
 RFO step:  Lambda0=3.937869022D-03 Lambda=-1.35513386D-01.
 Linear search not attempted -- option 19 set.
 Maximum step size (   0.010) exceeded in Quadratic search.
    -- Step size scaled by   0.016
 Iteration  1 RMS(Cart)=  0.00387574 RMS(Int)=  0.00000638
 Iteration  2 RMS(Cart)=  0.00001047 RMS(Int)=  0.00000248
 Iteration  3 RMS(Cart)=  0.00000000 RMS(Int)=  0.00000248
 Variable       Old X    -DE/DX   Delta X   Delta X   Delta X     New X
                                 (Linear)    (Quad)   (Total)
    R1        1.89210   0.13658   0.00000   0.00243   0.00243   1.89453
    R2        2.14964   0.11806   0.00000   0.00392   0.00392   2.15356
    R3        1.81452   0.01562   0.00000   0.00019   0.00019   1.81470
    R4        2.11335   0.11542   0.00000  -0.00012  -0.00012   2.11323
    R5        1.98063   0.13333   0.00000   0.00337   0.00337   1.98400
    R6        1.81440   0.00918   0.00000   0.00013   0.00013   1.81453
    R7        2.10842   0.10144   0.00000   0.00254   0.00254   2.11096
    R8        1.81406   0.00575   0.00000  -0.00004  -0.00004   1.81401
    R9        2.02845   0.13307   0.00000   0.00200   0.00200   2.03046
   R10        2.08261   0.01322   0.00000   0.00239   0.00239   2.08500
   R11        1.81448   0.01395   0.00000   0.00016   0.00016   1.81465
    A1        1.60500   0.21167   0.00000  -0.00124  -0.00124   1.60377
    A2        1.56176   0.01040   0.00000   0.00068   0.00068   1.56244
    A3        1.64527   0.01003   0.00000   0.00026   0.00026   1.64553
    A4        1.55318   0.21617   0.00000   0.00305   0.00305   1.55623
    A5        2.08941  -0.01504   0.00000  -0.00473  -0.00473   2.08468
    A6        1.63739  -0.07108   0.00000   0.00135   0.00136   1.63875
    A7        1.79153   0.01324   0.00000   0.00027   0.00027   1.79180
    A8        1.59297   0.04480   0.00000   0.00021   0.00021   1.59318
    A9        1.61697   0.02802   0.00000   0.00196   0.00196   1.61893
   A10        1.63460   0.00651   0.00000   0.00076   0.00076   1.63536
   A11        3.14013   0.08973   0.00000  -0.00071  -0.00071   3.13942
   A12        3.14113   0.18637   0.00000  -0.00026  -0.00025   3.14088
   A13        3.13757   0.13234   0.00000  -0.00193  -0.00193   3.13563
   A14        3.14037   0.00652   0.00000  -0.00049  -0.00049   3.13987
   A15        3.13881   0.00445   0.00000  -0.00158  -0.00158   3.13723
   A16        3.13801   0.00814   0.00000  -0.00187  -0.00187   3.13614
    D1        0.00009  -0.06799   0.00000   0.00011   0.00012   0.00021
    D2        1.63735   0.02630   0.00000   0.00321   0.00321   1.64056
    D3        1.56440  -0.03423   0.00000   0.00073   0.00073   1.56513
    D4       -3.08152   0.06005   0.00000   0.00382   0.00382  -3.07770
    D5       -1.71883  -0.00291   0.00000  -0.00124  -0.00124  -1.72007
    D6        2.91937  -0.01143   0.00000  -0.00153  -0.00153   2.91784
    D7       -0.00395   0.00428   0.00000  -0.00179  -0.00179  -0.00575
    D8       -1.63961  -0.00815   0.00000  -0.00259  -0.00259  -1.64220
    D9       -2.09322   0.00249   0.00000   0.00279   0.00279  -2.09043
   D10        2.55431  -0.00994   0.00000   0.00200   0.00200   2.55631
         Item               Value     Threshold  Converged?
 Maximum Force            0.216166     0.000015     NO 
 RMS     Force            0.084357     0.000010     NO 
 Maximum Displacement     0.013810     0.000060     NO 
 RMS     Displacement     0.003881     0.000040     NO 
 Predicted change in Energy=-2.146624D-03
 GradGradGradGradGradGradGradGradGradGradGradGradGradGradGradGradGradGrad

                          Input orientation:                          
 ---------------------------------------------------------------------
 Center     Atomic      Atomic             Coordinates (Angstroms)
 Number     Number       Type             X           Y           Z
 ---------------------------------------------------------------------
      1          8           0        0.761581    0.567383    1.921866
      2          8           0        1.863881    0.109615    0.005247
      3          8           0        2.573967    0.956005    2.949964
      4          8           0        3.695411    0.485483    1.013739
      5          1           0        1.618268    0.750547    2.409336
      6          1           0        1.317450    0.338638    0.953665
      7          1           0        2.770488    0.297531    0.500243
      8          1           0        3.157763    0.717909    1.948758
      9          1           0        0.676337    1.505593    1.735662
     10          1           0        2.089815   -0.800479   -0.201344
     11          1           0        3.721570    1.401846    0.727883
     12          1           0        2.737024    0.129714    3.410540
 ---------------------------------------------------------------------
                    Distance matrix (angstroms):
                    1          2          3          4          5
     1  O    0.000000
     2  O    2.257885   0.000000
     3  O    2.119612   3.145148   0.000000
     4  O    3.072257   2.124344   2.286481   0.000000
     5  H    1.002541   2.500153   1.117073   2.516441   0.000000
     6  H    1.139617   1.118273   2.438276   2.383248   1.542446
     7  H    2.475790   1.049890   2.544277   1.074471   2.275406
     8  H    2.401056   2.412755   1.183183   1.103334   1.607247
     9  H    0.960300   2.520586   2.318961   3.267508   1.382450
    10  H    2.853642   0.960206   3.640107   2.389155   3.073059
    11  H    3.299008   2.375515   2.540356   0.960270   2.770443
    12  H    2.511987   3.515509   0.959934   2.605711   1.624640
                    6          7          8          9         10
     6  H    0.000000
     7  H    1.522695   0.000000
     8  H    2.126220   1.557208   0.000000
     9  H    1.544127   2.714985   2.612152   0.000000
    10  H    1.796714   1.470090   2.840590   3.326842   0.000000
    11  H    2.638405   1.475090   1.508703   3.209334   2.894187
    12  H    2.845185   2.915324   1.630889   2.990768   3.785478
                   11         12
    11  H    0.000000
    12  H    3.127986   0.000000
 Stoichiometry    H8O4
 Framework group  C1[X(H8O4)]
 Deg. of freedom    30
 Full point group                 C1      NOp   1
 Largest Abelian subgroup         C1      NOp   1
 Largest concise Abelian subgroup C1      NOp   1
                         Standard orientation:                         
 ---------------------------------------------------------------------
 Center     Atomic      Atomic             Coordinates (Angstroms)
 Number     Number       Type             X           Y           Z
 ---------------------------------------------------------------------
      1          8           0        0.861782   -1.275370   -0.014387
      2          8           0       -1.344964   -0.797669   -0.003580
      3          8           0        1.375247    0.781064   -0.000603
      4          8           0       -0.858306    1.270172    0.002154
      5          1           0        1.105755   -0.302983   -0.008781
      6          1           0       -0.252098   -1.034673   -0.006470
      7          1           0       -1.107520    0.225002    0.002162
      8          1           0        0.220393    1.038348    0.005646
      9          1           0        0.938386   -1.291830    0.942711
     10          1           0       -1.819736   -0.749690   -0.836818
     11          1           0       -0.911824    1.330436    0.959035
     12          1           0        1.556575    0.959809   -0.926154
 ---------------------------------------------------------------------
 Rotational constants (GHZ):           6.1321555           5.2459945           2.9389485
 Standard basis: STO-3G (5D, 7F)
 There are    28 symmetry adapted cartesian basis functions of A   symmetry.
 There are    28 symmetry adapted basis functions of A   symmetry.
    28 basis functions,    84 primitive gaussians,    28 cartesian basis functions
    20 alpha electrons       20 beta electrons
       nuclear repulsion energy       171.3932679410 Hartrees.
 NAtoms=   12 NActive=   12 NUniq=   12 SFac= 1.00D+00 NAtFMM=   60 NAOKFM=F Big=F
 Integral buffers will be    131072 words long.
 Raffenetti 1 integral format.
 Two-electron integral symmetry is turned on.
 External calculation of energy and first derivatives.
 Running external command "xtb-gaussian -P 4 R"
         input file       "/scratch/Gau-1070278.EIn"
         output file      "/scratch/Gau-1070278.EOu"
         message file     "/scratch/Gau-1070278.EMs"
         fchk file        "/scratch/Gau-1070278.EFC"
         mat. el file     "/scratch/Gau-1070278.EUF"

 ExternalExternalExternalExternalExternalExternalExternalExternalExternalExternal
 Output from external command:
 "xtb-gaussian -P 4 R /scratch/Gau-1070278.EIn /scratch/Gau-1070278.EOu /scratch/Gau-1070278.EMs /scratch/Gau-1070278.EFC /scratch/Gau-1070278.EUF"
 normal termination of xtb
  
 ------- xtb command was ---------
 ?> xtb ./Gau-1070278.EIn -P 4 --grad --charge 0 --alpb water >/dev/null 2>Gau-1070278.EMs
 ---------------------------------
              Control returned to Gaussian.
 ~~~~~~~~~~~~~~~~~~~~~~~~~~~~~~~~~~~~~~~~~~~~~~~~~~~~~~~~~~~~~~~~~~~~~~~~~
 ExternalExternalExternalExternalExternalExternalExternalExternalExternalExternal

 Recovered energy= -20.2008785908     dipole=     -0.462047389460     -0.009665235530      0.168092612477
 Energy=    -20.2008786     NIter=   0.
 Dipole moment=      -0.462047      -0.009665       0.168093
 ***** Axes restored to original set *****
 -------------------------------------------------------------------
 Center     Atomic                   Forces (Hartrees/Bohr)
 Number     Number              X              Y              Z
 -------------------------------------------------------------------
      1        8          -0.116398577    0.002685518   -0.023718694
      2        8          -0.052304389   -0.024881211   -0.089646522
      3        8           0.061867419    0.017173087    0.073999351
      4        8           0.101535258    0.019959526    0.006894788
      5        1           0.019783418   -0.003971843    0.037806085
      6        1          -0.020634974   -0.020605145   -0.010097253
      7        1           0.008191134   -0.004626886   -0.013496939
      8        1           0.012201133    0.000408701    0.022568557
      9        1          -0.024476590    0.013105379   -0.002205825
     10        1          -0.012892030   -0.011317723   -0.006333034
     11        1           0.020303201    0.011451751   -0.007630147
     12        1           0.002824997    0.000618847    0.011859634
 -------------------------------------------------------------------
 Cartesian Forces:  Max     0.116398577 RMS     0.037801388

 GradGradGradGradGradGradGradGradGradGradGradGradGradGradGradGradGradGrad
 Berny optimization.
 FormGI is forming the generalized inverse of G from B-inverse, IUseBI=4.
 Internal  Forces:  Max     0.213304545 RMS     0.083118684
 Search for a saddle point.
 Step number   4 out of a maximum of  100
 All quantities printed in internal units (Hartrees-Bohrs-Radians)
 Swapping is turned off.
 Update second derivatives using D2CorX and points    1    2    3    4
 ITU=  0  0  0  0
     Eigenvalues ---   -0.04434  -0.02045  -0.00816   0.00806   0.00994
     Eigenvalues ---    0.02975   0.03996   0.04306   0.05412   0.05932
     Eigenvalues ---    0.06264   0.06819   0.08410   0.08683   0.09967
     Eigenvalues ---    0.11595   0.11684   0.15580   0.17088   0.17858
     Eigenvalues ---    0.32879   0.41016   0.46505   0.46775   0.47072
     Eigenvalues ---    0.47380   0.52260   0.60819   0.78020  10.31801
 Eigenvectors required to have negative eigenvalues:
                          D1        D5        D2        D3        A15
   1                   -0.48348   0.40107  -0.36562  -0.31662   0.29487
                          D6        D4        D7        A2        A16
   1                    0.28598  -0.19876   0.18010   0.16822   0.15418
 RFO step:  Lambda0=3.904595061D-03 Lambda=-1.33008978D-01.
 Linear search not attempted -- option 19 set.
 Maximum step size (   0.010) exceeded in Quadratic search.
    -- Step size scaled by   0.016
 Iteration  1 RMS(Cart)=  0.00383256 RMS(Int)=  0.00000612
 Iteration  2 RMS(Cart)=  0.00001008 RMS(Int)=  0.00000235
 Iteration  3 RMS(Cart)=  0.00000000 RMS(Int)=  0.00000235
 Variable       Old X    -DE/DX   Delta X   Delta X   Delta X     New X
                                 (Linear)    (Quad)   (Total)
    R1        1.89453   0.13484   0.00000   0.00240   0.00240   1.89693
    R2        2.15356   0.11650   0.00000   0.00401   0.00401   2.15758
    R3        1.81470   0.01540   0.00000   0.00019   0.00019   1.81489
    R4        2.11323   0.11381   0.00000  -0.00017  -0.00017   2.11306
    R5        1.98400   0.13162   0.00000   0.00345   0.00345   1.98745
    R6        1.81453   0.00905   0.00000   0.00013   0.00013   1.81465
    R7        2.11096   0.10017   0.00000   0.00261   0.00261   2.11357
    R8        1.81401   0.00565   0.00000  -0.00005  -0.00005   1.81397
    R9        2.03046   0.13139   0.00000   0.00195   0.00195   2.03241
   R10        2.08500   0.01326   0.00000   0.00244   0.00244   2.08744
   R11        1.81465   0.01375   0.00000   0.00015   0.00015   1.81480
    A1        1.60377   0.20831   0.00000  -0.00119  -0.00119   1.60258
    A2        1.56244   0.01026   0.00000   0.00066   0.00066   1.56310
    A3        1.64553   0.00996   0.00000   0.00028   0.00028   1.64581
    A4        1.55623   0.21330   0.00000   0.00302   0.00302   1.55925
    A5        2.08468  -0.01517   0.00000  -0.00462  -0.00462   2.08006
    A6        1.63875  -0.06899   0.00000   0.00129   0.00130   1.64005
    A7        1.79180   0.01308   0.00000   0.00027   0.00027   1.79208
    A8        1.59318   0.04423   0.00000   0.00026   0.00026   1.59343
    A9        1.61893   0.02778   0.00000   0.00197   0.00197   1.62089
   A10        1.63536   0.00638   0.00000   0.00070   0.00070   1.63606
   A11        3.13942   0.08820   0.00000  -0.00067  -0.00067   3.13875
   A12        3.14088   0.18351   0.00000  -0.00029  -0.00029   3.14059
   A13        3.13563   0.13016   0.00000  -0.00199  -0.00199   3.13364
   A14        3.13987   0.00642   0.00000  -0.00047  -0.00047   3.13940
   A15        3.13723   0.00441   0.00000  -0.00159  -0.00159   3.13563
   A16        3.13614   0.00799   0.00000  -0.00181  -0.00181   3.13433
    D1        0.00021  -0.06679   0.00000   0.00023   0.00023   0.00044
    D2        1.64056   0.02550   0.00000   0.00319   0.00319   1.64375
    D3        1.56513  -0.03325   0.00000   0.00082   0.00083   1.56596
    D4       -3.07770   0.05905   0.00000   0.00379   0.00378  -3.07392
    D5       -1.72007  -0.00287   0.00000  -0.00135  -0.00135  -1.72142
    D6        2.91784  -0.01141   0.00000  -0.00165  -0.00165   2.91619
    D7       -0.00575   0.00440   0.00000  -0.00174  -0.00174  -0.00749
    D8       -1.64220  -0.00812   0.00000  -0.00247  -0.00247  -1.64467
    D9       -2.09043   0.00259   0.00000   0.00274   0.00273  -2.08769
   D10        2.55631  -0.00994   0.00000   0.00201   0.00200   2.55831
         Item               Value     Threshold  Converged?
 Maximum Force            0.213305     0.000015     NO 
 RMS     Force            0.083119     0.000010     NO 
 Maximum Displacement     0.013613     0.000060     NO 
 RMS     Displacement     0.003837     0.000040     NO 
 Predicted change in Energy=-2.118268D-03
 GradGradGradGradGradGradGradGradGradGradGradGradGradGradGradGradGradGrad

                          Input orientation:                          
 ---------------------------------------------------------------------
 Center     Atomic      Atomic             Coordinates (Angstroms)
 Number     Number       Type             X           Y           Z
 ---------------------------------------------------------------------
      1          8           0        0.758350    0.566009    1.922238
      2          8           0        1.863641    0.110485    0.004419
      3          8           0        2.573569    0.956296    2.950172
      4          8           0        3.698544    0.485129    1.013231
      5          1           0        1.616223    0.749791    2.410002
      6          1           0        1.316068    0.339015    0.952190
      7          1           0        2.772752    0.298593    0.498624
      8          1           0        3.160261    0.719456    1.948935
      9          1           0        0.671158    1.504382    1.737240
     10          1           0        2.086246   -0.801099   -0.199510
     11          1           0        3.728774    1.401402    0.727220
     12          1           0        2.737970    0.130326    3.410796
 ---------------------------------------------------------------------
                    Distance matrix (angstroms):
                    1          2          3          4          5
     1  O    0.000000
     2  O    2.259913   0.000000
     3  O    2.122262   3.145928   0.000000
     4  O    3.078568   2.127188   2.288954   0.000000
     5  H    1.003811   2.501352   1.118454   2.521325   0.000000
     6  H    1.141740   1.118183   2.440139   2.387733   1.544036
     7  H    2.481130   1.051716   2.546043   1.075503   2.279146
     8  H    2.406956   2.415205   1.184388   1.104627   1.611693
     9  H    0.960401   2.523418   2.321803   3.275383   1.383894
    10  H    2.852036   0.960273   3.639563   2.392620   3.071764
    11  H    3.308983   2.380678   2.544432   0.960350   2.778349
    12  H    2.514860   3.516852   0.959910   2.607088   1.625928
                    6          7          8          9         10
     6  H    0.000000
     7  H    1.526199   0.000000
     8  H    2.130559   1.559068   0.000000
     9  H    1.546057   2.721175   2.618502   0.000000
    10  H    1.794282   1.472415   2.842783   3.326968   0.000000
    11  H    2.645832   1.477302   1.510247   3.221763   2.899610
    12  H    2.847824   2.917237   1.631699   2.993414   3.785051
                   11         12
    11  H    0.000000
    12  H    3.130321   0.000000
 Stoichiometry    H8O4
 Framework group  C1[X(H8O4)]
 Deg. of freedom    30
 Full point group                 C1      NOp   1
 Largest Abelian subgroup         C1      NOp   1
 Largest concise Abelian subgroup C1      NOp   1
                         Standard orientation:                         
 ---------------------------------------------------------------------
 Center     Atomic      Atomic             Coordinates (Angstroms)
 Number     Number       Type             X           Y           Z
 ---------------------------------------------------------------------
      1          8           0        0.874551   -1.270387   -0.014917
      2          8           0       -1.337968   -0.810153   -0.002746
      3          8           0        1.368513    0.793535    0.000001
      4          8           0       -0.871315    1.265214    0.001171
      5          1           0        1.109651   -0.294514   -0.009027
      6          1           0       -0.243342   -1.038451   -0.005405
      7          1           0       -1.111357    0.216843    0.003073
      8          1           0        0.210741    1.043121    0.006817
      9          1           0        0.952678   -1.287380    0.942150
     10          1           0       -1.809733   -0.769373   -0.838149
     11          1           0       -0.927140    1.329067    0.957768
     12          1           0        1.548261    0.975016   -0.925300
 ---------------------------------------------------------------------
 Rotational constants (GHZ):           6.1112738           5.2395596           2.9320370
 Standard basis: STO-3G (5D, 7F)
 There are    28 symmetry adapted cartesian basis functions of A   symmetry.
 There are    28 symmetry adapted basis functions of A   symmetry.
    28 basis functions,    84 primitive gaussians,    28 cartesian basis functions
    20 alpha electrons       20 beta electrons
       nuclear repulsion energy       171.2092885185 Hartrees.
 NAtoms=   12 NActive=   12 NUniq=   12 SFac= 1.00D+00 NAtFMM=   60 NAOKFM=F Big=F
 Integral buffers will be    131072 words long.
 Raffenetti 1 integral format.
 Two-electron integral symmetry is turned on.
 External calculation of energy and first derivatives.
 Running external command "xtb-gaussian -P 4 R"
         input file       "/scratch/Gau-1070278.EIn"
         output file      "/scratch/Gau-1070278.EOu"
         message file     "/scratch/Gau-1070278.EMs"
         fchk file        "/scratch/Gau-1070278.EFC"
         mat. el file     "/scratch/Gau-1070278.EUF"

 ExternalExternalExternalExternalExternalExternalExternalExternalExternalExternal
 Output from external command:
 "xtb-gaussian -P 4 R /scratch/Gau-1070278.EIn /scratch/Gau-1070278.EOu /scratch/Gau-1070278.EMs /scratch/Gau-1070278.EFC /scratch/Gau-1070278.EUF"
 normal termination of xtb
  
 ------- xtb command was ---------
 ?> xtb ./Gau-1070278.EIn -P 4 --grad --charge 0 --alpb water >/dev/null 2>Gau-1070278.EMs
 ---------------------------------
              Control returned to Gaussian.
 ~~~~~~~~~~~~~~~~~~~~~~~~~~~~~~~~~~~~~~~~~~~~~~~~~~~~~~~~~~~~~~~~~~~~~~~~~
 ExternalExternalExternalExternalExternalExternalExternalExternalExternalExternal

 Recovered energy= -20.2029960156     dipole=     -0.464556645977     -0.009944392219      0.168222711839
 Energy=    -20.2029960     NIter=   0.
 Dipole moment=      -0.464557      -0.009944       0.168223
 ***** Axes restored to original set *****
 -------------------------------------------------------------------
 Center     Atomic                   Forces (Hartrees/Bohr)
 Number     Number              X              Y              Z
 -------------------------------------------------------------------
      1        8          -0.114808403    0.002832440   -0.023257533
      2        8          -0.051345912   -0.024479711   -0.088419141
      3        8           0.061321568    0.016902564    0.072744045
      4        8           0.100114907    0.019887047    0.006893587
      5        1           0.019489188   -0.004056090    0.037380608
      6        1          -0.020426623   -0.020427574   -0.010109554
      7        1           0.008014075   -0.004606119   -0.013518596
      8        1           0.011912046    0.000385068    0.022466249
      9        1          -0.024383884    0.012849094   -0.002153378
     10        1          -0.012835168   -0.011142288   -0.006234890
     11        1           0.020187012    0.011191032   -0.007542732
     12        1           0.002761194    0.000664537    0.011751335
 -------------------------------------------------------------------
 Cartesian Forces:  Max     0.114808403 RMS     0.037290313

 GradGradGradGradGradGradGradGradGradGradGradGradGradGradGradGradGradGrad
 Berny optimization.
 FormGI is forming the generalized inverse of G from B-inverse, IUseBI=4.
 Internal  Forces:  Max     0.210466715 RMS     0.081895925
 Search for a saddle point.
 Step number   5 out of a maximum of  100
 All quantities printed in internal units (Hartrees-Bohrs-Radians)
 Swapping is turned off.
 Update second derivatives using D2CorX and points    1    2    3    4    5
 ITU=  0  0  0  0  0
     Eigenvalues ---   -0.04382  -0.02021  -0.00679   0.00811   0.00994
     Eigenvalues ---    0.02974   0.03982   0.04307   0.05415   0.05927
     Eigenvalues ---    0.06267   0.06809   0.08410   0.08682   0.09967
     Eigenvalues ---    0.11595   0.11689   0.15574   0.17083   0.17861
     Eigenvalues ---    0.32869   0.41014   0.46501   0.46776   0.47072
     Eigenvalues ---    0.47381   0.52236   0.60615   0.78034  10.31870
 Eigenvectors required to have negative eigenvalues:
                          D1        D5        D2        D3        A15
   1                   -0.48885   0.40295  -0.36065  -0.32316   0.29023
                          D6        D4        D7        A2        A16
   1                    0.28649  -0.19496   0.17652   0.16731   0.14612
 RFO step:  Lambda0=4.057785396D-03 Lambda=-1.30629985D-01.
 Linear search not attempted -- option 19 set.
 Maximum step size (   0.010) exceeded in Quadratic search.
    -- Step size scaled by   0.016
 Iteration  1 RMS(Cart)=  0.00382028 RMS(Int)=  0.00000588
 Iteration  2 RMS(Cart)=  0.00000970 RMS(Int)=  0.00000223
 Iteration  3 RMS(Cart)=  0.00000000 RMS(Int)=  0.00000223
 Variable       Old X    -DE/DX   Delta X   Delta X   Delta X     New X
                                 (Linear)    (Quad)   (Total)
    R1        1.89693   0.13312   0.00000   0.00242   0.00242   1.89935
    R2        2.15758   0.11494   0.00000   0.00408   0.00408   2.16166
    R3        1.81489   0.01518   0.00000   0.00018   0.00018   1.81508
    R4        2.11306   0.11222   0.00000  -0.00019  -0.00019   2.11287
    R5        1.98745   0.12992   0.00000   0.00354   0.00354   1.99100
    R6        1.81465   0.00892   0.00000   0.00013   0.00013   1.81478
    R7        2.11357   0.09890   0.00000   0.00269   0.00269   2.11626
    R8        1.81397   0.00555   0.00000  -0.00004  -0.00004   1.81393
    R9        2.03241   0.12971   0.00000   0.00193   0.00193   2.03434
   R10        2.08744   0.01330   0.00000   0.00252   0.00252   2.08997
   R11        1.81480   0.01356   0.00000   0.00015   0.00015   1.81495
    A1        1.60258   0.20500   0.00000  -0.00114  -0.00114   1.60144
    A2        1.56310   0.01012   0.00000   0.00071   0.00071   1.56381
    A3        1.64581   0.00988   0.00000   0.00018   0.00018   1.64599
    A4        1.55925   0.21047   0.00000   0.00296   0.00297   1.56222
    A5        2.08006  -0.01528   0.00000  -0.00450  -0.00450   2.07556
    A6        1.64005  -0.06696   0.00000   0.00121   0.00122   1.64127
    A7        1.79208   0.01292   0.00000   0.00018   0.00018   1.79226
    A8        1.59343   0.04367   0.00000   0.00034   0.00034   1.59377
    A9        1.62089   0.02754   0.00000   0.00198   0.00198   1.62288
   A10        1.63606   0.00625   0.00000   0.00068   0.00069   1.63675
   A11        3.13875   0.08669   0.00000  -0.00067  -0.00067   3.13808
   A12        3.14059   0.18069   0.00000  -0.00030  -0.00030   3.14028
   A13        3.13364   0.12802   0.00000  -0.00200  -0.00200   3.13165
   A14        3.13940   0.00633   0.00000  -0.00023  -0.00023   3.13917
   A15        3.13563   0.00438   0.00000  -0.00165  -0.00165   3.13398
   A16        3.13433   0.00786   0.00000  -0.00168  -0.00168   3.13266
    D1        0.00044  -0.06563   0.00000   0.00052   0.00053   0.00097
    D2        1.64375   0.02473   0.00000   0.00332   0.00331   1.64706
    D3        1.56596  -0.03228   0.00000   0.00117   0.00117   1.56713
    D4       -3.07392   0.05807   0.00000   0.00396   0.00396  -3.06997
    D5       -1.72142  -0.00284   0.00000  -0.00154  -0.00154  -1.72296
    D6        2.91619  -0.01139   0.00000  -0.00175  -0.00175   2.91443
    D7       -0.00749   0.00453   0.00000  -0.00167  -0.00167  -0.00916
    D8       -1.64467  -0.00809   0.00000  -0.00239  -0.00239  -1.64706
    D9       -2.08769   0.00268   0.00000   0.00268   0.00268  -2.08501
   D10        2.55831  -0.00993   0.00000   0.00196   0.00196   2.56027
         Item               Value     Threshold  Converged?
 Maximum Force            0.210467     0.000015     NO 
 RMS     Force            0.081896     0.000010     NO 
 Maximum Displacement     0.013483     0.000060     NO 
 RMS     Displacement     0.003825     0.000040     NO 
 Predicted change in Energy=-2.109856D-03
 GradGradGradGradGradGradGradGradGradGradGradGradGradGradGradGradGradGrad

                          Input orientation:                          
 ---------------------------------------------------------------------
 Center     Atomic      Atomic             Coordinates (Angstroms)
 Number     Number       Type             X           Y           Z
 ---------------------------------------------------------------------
      1          8           0        0.755180    0.564582    1.922672
      2          8           0        1.863354    0.111380    0.003546
      3          8           0        2.573284    0.956675    2.950404
      4          8           0        3.701663    0.484730    1.012711
      5          1           0        1.614247    0.749168    2.410670
      6          1           0        1.314698    0.339410    0.950692
      7          1           0        2.775016    0.299583    0.497004
      8          1           0        3.162808    0.720898    1.949200
      9          1           0        0.665855    1.503066    1.738760
     10          1           0        2.082684   -0.801634   -0.197828
     11          1           0        3.735909    1.400920    0.726617
     12          1           0        2.738859    0.131009    3.411110
 ---------------------------------------------------------------------
                    Distance matrix (angstroms):
                    1          2          3          4          5
     1  O    0.000000
     2  O    2.261966   0.000000
     3  O    2.124964   3.146824   0.000000
     4  O    3.084829   2.130068   2.291424   0.000000
     5  H    1.005092   2.502614   1.119877   2.526168   0.000000
     6  H    1.143901   1.118081   2.442110   2.392189   1.545694
     7  H    2.486462   1.053589   2.547869   1.076526   2.282899
     8  H    2.412843   2.417781   1.185554   1.105962   1.616105
     9  H    0.960497   2.526215   2.324847   3.283335   1.385379
    10  H    2.850497   0.960339   3.639190   2.396087   3.070616
    11  H    3.318848   2.385835   2.548387   0.960431   2.786084
    12  H    2.517621   3.518294   0.959891   2.608530   1.627192
                    6          7          8          9         10
     6  H    0.000000
     7  H    1.529689   0.000000
     8  H    2.134961   1.561013   0.000000
     9  H    1.547949   2.727433   2.625042   0.000000
    10  H    1.791893   1.474719   2.845083   3.327074   0.000000
    11  H    2.653163   1.479520   1.511815   3.234207   2.904994
    12  H    2.850496   2.919202   1.632448   2.996105   3.784815
                   11         12
    11  H    0.000000
    12  H    3.132617   0.000000
 Stoichiometry    H8O4
 Framework group  C1[X(H8O4)]
 Deg. of freedom    30
 Full point group                 C1      NOp   1
 Largest Abelian subgroup         C1      NOp   1
 Largest concise Abelian subgroup C1      NOp   1
                         Standard orientation:                         
 ---------------------------------------------------------------------
 Center     Atomic      Atomic             Coordinates (Angstroms)
 Number     Number       Type             X           Y           Z
 ---------------------------------------------------------------------
      1          8           0        0.887236   -1.265293   -0.015517
      2          8           0       -1.330936   -0.822554   -0.001864
      3          8           0        1.361731    0.805954    0.000668
      4          8           0       -0.884229    1.260145    0.000148
      5          1           0        1.113476   -0.286015   -0.009155
      6          1           0       -0.234634   -1.042152   -0.004314
      7          1           0       -1.115140    0.208683    0.003919
      8          1           0        0.201135    1.047828    0.007856
      9          1           0        0.966842   -1.283015    0.941511
     10          1           0       -1.799705   -0.788852   -0.839343
     11          1           0       -0.942337    1.327524    0.956448
     12          1           0        1.539952    0.989990   -0.924403
 ---------------------------------------------------------------------
 Rotational constants (GHZ):           6.0906143           5.2328503           2.9250707
 Standard basis: STO-3G (5D, 7F)
 There are    28 symmetry adapted cartesian basis functions of A   symmetry.
 There are    28 symmetry adapted basis functions of A   symmetry.
    28 basis functions,    84 primitive gaussians,    28 cartesian basis functions
    20 alpha electrons       20 beta electrons
       nuclear repulsion energy       171.0240162259 Hartrees.
 NAtoms=   12 NActive=   12 NUniq=   12 SFac= 1.00D+00 NAtFMM=   60 NAOKFM=F Big=F
 Integral buffers will be    131072 words long.
 Raffenetti 1 integral format.
 Two-electron integral symmetry is turned on.
 External calculation of energy, first and second derivatives.
 Running external command "xtb-gaussian -P 4 R"
         input file       "/scratch/Gau-1070278.EIn"
         output file      "/scratch/Gau-1070278.EOu"
         message file     "/scratch/Gau-1070278.EMs"
         fchk file        "/scratch/Gau-1070278.EFC"
         mat. el file     "/scratch/Gau-1070278.EUF"

 ExternalExternalExternalExternalExternalExternalExternalExternalExternalExternal
 Output from external command:
 "xtb-gaussian -P 4 R /scratch/Gau-1070278.EIn /scratch/Gau-1070278.EOu /scratch/Gau-1070278.EMs /scratch/Gau-1070278.EFC /scratch/Gau-1070278.EUF"
 normal termination of xtb
  
 ------- xtb command was ---------
 ?> xtb ./Gau-1070278.EIn -P 4 --hess --charge 0 --alpb water >/dev/null 2>Gau-1070278.EMs
 ---------------------------------
              Control returned to Gaussian.
 ~~~~~~~~~~~~~~~~~~~~~~~~~~~~~~~~~~~~~~~~~~~~~~~~~~~~~~~~~~~~~~~~~~~~~~~~~
 ExternalExternalExternalExternalExternalExternalExternalExternalExternalExternal

 Recovered energy= -20.2051046904     dipole=     -0.467003649821     -0.010493360017      0.168331890651
 Energy=    -20.2051047     NIter=   0.
 Dipole moment=      -0.467004      -0.010493       0.168332
 ***** Axes restored to original set *****
 -------------------------------------------------------------------
 Center     Atomic                   Forces (Hartrees/Bohr)
 Number     Number              X              Y              Z
 -------------------------------------------------------------------
      1        8          -0.113204420    0.002972527   -0.022797205
      2        8          -0.050388831   -0.024070361   -0.087189279
      3        8           0.060770298    0.016629661    0.071486674
      4        8           0.098689357    0.019808501    0.006890452
      5        1           0.019194590   -0.004128914    0.036948968
      6        1          -0.020214473   -0.020258132   -0.010119016
      7        1           0.007841414   -0.004583559   -0.013530478
      8        1           0.011623891    0.000363350    0.022357350
      9        1          -0.024292870    0.012591767   -0.002098603
     10        1          -0.012782047   -0.010967062   -0.006138168
     11        1           0.020066139    0.010931036   -0.007455039
     12        1           0.002696951    0.000711187    0.011644343
 -------------------------------------------------------------------
 Cartesian Forces:  Max     0.113204420 RMS     0.036777048
 FormGI is forming the generalized inverse of G from B-inverse, IUseBI=4.

 GradGradGradGradGradGradGradGradGradGradGradGradGradGradGradGradGradGrad
 Berny optimization.
 Internal  Forces:  Max     0.207590156 RMS     0.080668270
 Search for a saddle point.
 Step number   6 out of a maximum of  100
 All quantities printed in internal units (Hartrees-Bohrs-Radians)
 Swapping is turned off.
 Second derivative matrix not updated -- analytic derivatives used.
 ITU=  0  0  0  0  0  0
     Eigenvalues ---   -0.03800  -0.01801  -0.00693   0.00638   0.01203
     Eigenvalues ---    0.02982   0.03985   0.04313   0.05504   0.05891
     Eigenvalues ---    0.06235   0.06609   0.08205   0.08495   0.09807
     Eigenvalues ---    0.11169   0.11235   0.15080   0.16260   0.17153
     Eigenvalues ---    0.32433   0.40946   0.46290   0.46626   0.46959
     Eigenvalues ---    0.47439   0.51441   0.58455   0.78023  10.35413
 Eigenvectors required to have negative eigenvalues:
                          D1        D5        D2        D3        D6
   1                   -0.47265   0.39357  -0.37359  -0.32055   0.28909
                          A15       D4        D7        A2        A16
   1                    0.28345  -0.22148   0.19523   0.15242   0.14669
 RFO step:  Lambda0=3.815431181D-03 Lambda=-1.29331163D-01.
 Linear search not attempted -- option 19 set.
 Maximum step size (   0.010) exceeded in Quadratic search.
    -- Step size scaled by   0.015
 Iteration  1 RMS(Cart)=  0.00355582 RMS(Int)=  0.00000517
 Iteration  2 RMS(Cart)=  0.00000848 RMS(Int)=  0.00000201
 Iteration  3 RMS(Cart)=  0.00000000 RMS(Int)=  0.00000201
 Variable       Old X    -DE/DX   Delta X   Delta X   Delta X     New X
                                 (Linear)    (Quad)   (Total)
    R1        1.89935   0.13138   0.00000   0.00200   0.00200   1.90135
    R2        2.16166   0.11338   0.00000   0.00440   0.00440   2.16606
    R3        1.81508   0.01497   0.00000   0.00014   0.00014   1.81522
    R4        2.11287   0.11062   0.00000  -0.00078  -0.00078   2.11209
    R5        1.99100   0.12821   0.00000   0.00366   0.00366   1.99465
    R6        1.81478   0.00878   0.00000   0.00011   0.00011   1.81489
    R7        2.11626   0.09763   0.00000   0.00286   0.00286   2.11912
    R8        1.81393   0.00545   0.00000  -0.00002  -0.00002   1.81392
    R9        2.03434   0.12802   0.00000   0.00144   0.00144   2.03578
   R10        2.08997   0.01334   0.00000   0.00289   0.00289   2.09286
   R11        1.81495   0.01336   0.00000   0.00013   0.00013   1.81508
    A1        1.60144   0.20168   0.00000  -0.00117  -0.00117   1.60027
    A2        1.56381   0.01000   0.00000   0.00090   0.00090   1.56471
    A3        1.64599   0.00979   0.00000   0.00010   0.00010   1.64610
    A4        1.56222   0.20759   0.00000   0.00283   0.00283   1.56505
    A5        2.07556  -0.01536   0.00000  -0.00439  -0.00439   2.07117
    A6        1.64127  -0.06498   0.00000   0.00112   0.00113   1.64240
    A7        1.79226   0.01276   0.00000   0.00012   0.00012   1.79238
    A8        1.59377   0.04310   0.00000   0.00037   0.00037   1.59414
    A9        1.62288   0.02730   0.00000   0.00199   0.00199   1.62487
[...]
                                 (Linear)    (Quad)   (Total)
    R1        1.91735   0.07365   0.00000  -0.00029  -0.00029   1.91706
    R2        2.40992   0.06564   0.00000   0.00405   0.00405   2.41397
    R3        1.81759   0.00800   0.00000   0.00002   0.00002   1.81761
    R4        2.01615   0.05885   0.00000  -0.00176  -0.00176   2.01438
    R5        2.25123   0.07634   0.00000   0.00507   0.00507   2.25630
    R6        1.81521   0.00457   0.00000  -0.00006  -0.00006   1.81515
    R7        2.32878   0.05896   0.00000   0.00382   0.00382   2.33260
    R8        1.81516   0.00266   0.00000   0.00002   0.00002   1.81518
    R9        1.99734   0.07067   0.00000  -0.00156  -0.00156   1.99578
   R10        2.35769   0.01519   0.00000   0.00513   0.00513   2.36282
   R11        1.81536   0.00707   0.00000  -0.00001  -0.00001   1.81535
    A1        1.56881   0.10453   0.00000  -0.00055  -0.00055   1.56826
    A2        1.63263   0.00837   0.00000   0.00122   0.00122   1.63385
    A3        1.64603   0.00436   0.00000  -0.00009  -0.00009   1.64594
    A4        1.64397   0.11318   0.00000   0.00103   0.00103   1.64501
    A5        1.96685  -0.01121   0.00000  -0.00146  -0.00146   1.96538
    A6        1.65082  -0.02139   0.00000  -0.00004  -0.00004   1.65079
    A7        1.79613   0.00790   0.00000   0.00029   0.00029   1.79643
    A8        1.62293   0.02425   0.00000   0.00037   0.00037   1.62329
    A9        1.71585   0.01828   0.00000   0.00135   0.00135   1.71719
   A10        1.64010   0.00250   0.00000  -0.00043  -0.00043   1.63967
   A11        3.12348   0.04171   0.00000  -0.00010  -0.00010   3.12338
   A12        3.12525   0.09141   0.00000  -0.00008  -0.00008   3.12517
   A13        3.06158   0.06308   0.00000  -0.00120  -0.00120   3.06038
   A14        3.15615   0.00289   0.00000   0.00069   0.00069   3.15684
   A15        3.09383   0.00440   0.00000  -0.00125  -0.00125   3.09257
   A16        3.09921   0.00466   0.00000  -0.00047  -0.00047   3.09874
    D1        0.02757  -0.03291   0.00000   0.00103   0.00103   0.02860
    D2        1.70960   0.00753   0.00000   0.00115   0.00115   1.71075
    D3        1.65963  -0.01030   0.00000   0.00220   0.00220   1.66183
    D4       -2.94153   0.03013   0.00000   0.00232   0.00232  -2.93921
    D5       -1.81760   0.00159   0.00000  -0.00292  -0.00292  -1.82052
    D6        2.82019  -0.01168   0.00000  -0.00278  -0.00278   2.81741
    D7       -0.03790   0.00590   0.00000   0.00036   0.00036  -0.03754
    D8       -1.68097  -0.00706   0.00000   0.00082   0.00082  -1.68016
    D9       -2.00918   0.00539   0.00000   0.00179   0.00179  -2.00740
   D10        2.63093  -0.00756   0.00000   0.00224   0.00224   2.63317
         Item               Value     Threshold  Converged?
 Maximum Force            0.113185     0.000015     NO 
 RMS     Force            0.043451     0.000010     NO 
 Maximum Displacement     0.006098     0.000060     NO 
 RMS     Displacement     0.002146     0.000040     NO 
 Predicted change in Energy=-7.849911D-04
 GradGradGradGradGradGradGradGradGradGradGradGradGradGradGradGradGradGrad

                          Input orientation:                          
 ---------------------------------------------------------------------
 Center     Atomic      Atomic             Coordinates (Angstroms)
 Number     Number       Type             X           Y           Z
 ---------------------------------------------------------------------
      1          8           0        0.657807    0.533231    1.956292
      2          8           0        1.815261    0.128701   -0.039824
      3          8           0        2.624215    0.964519    2.958153
      4          8           0        3.795126    0.470189    0.968079
      5          1           0        1.539328    0.737850    2.414752
      6          1           0        1.278489    0.338553    0.856905
      7          1           0        2.886283    0.324595    0.450202
      8          1           0        3.215576    0.770658    2.034484
      9          1           0        0.470055    1.458074    1.770424
     10          1           0        1.961716   -0.811486   -0.171079
     11          1           0        3.953434    1.384379    0.719024
     12          1           0        2.786265    0.160522    3.458145
 ---------------------------------------------------------------------
                    Distance matrix (angstroms):
                    1          2          3          4          5
     1  O    0.000000
     2  O    2.342610   0.000000
     3  O    2.248665   3.215721   0.000000
     4  O    3.289880   2.247744   2.361310   0.000000
     5  H    1.014462   2.544041   1.234359   2.693164   0.000000
     6  H    1.277419   1.065966   2.572558   2.522528   1.629222
     7  H    2.697766   1.193980   2.601538   1.056121   2.417545
     8  H    2.569955   2.583747   1.113756   1.250352   1.719153
     9  H    0.961838   2.617978   2.508924   3.560305   1.441259
    10  H    2.834458   0.960536   3.658578   2.510332   3.043908
    11  H    3.621663   2.593138   2.637575   0.960642   3.020166
    12  H    2.631503   3.630379   0.960554   2.704463   1.725349
                    6          7          8          9         10
     6  H    0.000000
     7  H    1.658494   0.000000
     8  H    2.307751   1.678498   0.000000
     9  H    1.655721   2.977569   2.842561   0.000000
    10  H    1.687050   1.591067   2.989959   3.338471   0.000000
    11  H    2.875430   1.527816   1.628350   3.639341   3.095328
    12  H    3.011899   3.014074   1.607291   3.145929   3.846551
                   11         12
    11  H    0.000000
    12  H    3.219145   0.000000
 Stoichiometry    H8O4
 Framework group  C1[X(H8O4)]
 Deg. of freedom    30
 Full point group                 C1      NOp   1
 Largest Abelian subgroup         C1      NOp   1
 Largest concise Abelian subgroup C1      NOp   1
                         Standard orientation:                         
 ---------------------------------------------------------------------
 Center     Atomic      Atomic             Coordinates (Angstroms)
 Number     Number       Type             X           Y           Z
 ---------------------------------------------------------------------
      1          8           0        1.330434   -0.976024   -0.030978
      2          8           0       -0.994617   -1.258131    0.017778
      3          8           0        1.017576    1.250244    0.017483
      4          8           0       -1.326057    0.964672   -0.022779
      5          1           0        1.199429    0.029489   -0.000734
      6          1           0        0.064689   -1.139321    0.024000
      7          1           0       -1.215322   -0.084730    0.020621
      8          1           0       -0.092687    1.163049    0.030374
      9          1           0        1.454116   -1.049658    0.920028
     10          1           0       -1.345093   -1.400009   -0.865210
     11          1           0       -1.460081    1.130301    0.913937
     12          1           0        1.176255    1.504791   -0.895036
 ---------------------------------------------------------------------
 Rotational constants (GHZ):           5.4313149           4.9265700           2.6732867
 Standard basis: STO-3G (5D, 7F)
 There are    28 symmetry adapted cartesian basis functions of A   symmetry.
 There are    28 symmetry adapted basis functions of A   symmetry.
    28 basis functions,    84 primitive gaussians,    28 cartesian basis functions
    20 alpha electrons       20 beta electrons
       nuclear repulsion energy       164.3512529215 Hartrees.
 NAtoms=   12 NActive=   12 NUniq=   12 SFac= 1.00D+00 NAtFMM=   60 NAOKFM=F Big=F
 Integral buffers will be    131072 words long.
 Raffenetti 1 integral format.
 Two-electron integral symmetry is turned on.
 External calculation of energy and first derivatives.
 Running external command "xtb-gaussian -P 4 R"
         input file       "/scratch/Gau-1070278.EIn"
         output file      "/scratch/Gau-1070278.EOu"
         message file     "/scratch/Gau-1070278.EMs"
         fchk file        "/scratch/Gau-1070278.EFC"
         mat. el file     "/scratch/Gau-1070278.EUF"

 ExternalExternalExternalExternalExternalExternalExternalExternalExternalExternal
 Output from external command:
 "xtb-gaussian -P 4 R /scratch/Gau-1070278.EIn /scratch/Gau-1070278.EOu /scratch/Gau-1070278.EMs /scratch/Gau-1070278.EFC /scratch/Gau-1070278.EUF"
 normal termination of xtb
  
 ------- xtb command was ---------
 ?> xtb ./Gau-1070278.EIn -P 4 --grad --charge 0 --alpb water >/dev/null 2>Gau-1070278.EMs
 ---------------------------------
              Control returned to Gaussian.
 ~~~~~~~~~~~~~~~~~~~~~~~~~~~~~~~~~~~~~~~~~~~~~~~~~~~~~~~~~~~~~~~~~~~~~~~~~
 ExternalExternalExternalExternalExternalExternalExternalExternalExternalExternal

 Recovered energy= -20.2719109579     dipole=     -0.304732041533      0.005269984558      0.134975167413
 Energy=    -20.2719110     NIter=   0.
 Dipole moment=      -0.304732       0.005270       0.134975
 ***** Axes restored to original set *****
 -------------------------------------------------------------------
 Center     Atomic                   Forces (Hartrees/Bohr)
 Number     Number              X              Y              Z
 -------------------------------------------------------------------
      1        8          -0.060726879    0.008976917   -0.008147604
      2        8          -0.026765739   -0.011028638   -0.049113123
      3        8           0.041822530    0.008057109    0.035283910
      4        8           0.054010308    0.014807193    0.000132265
      5        1           0.006389585   -0.006099183    0.021920919
      6        1          -0.011090882   -0.015515102   -0.011261405
      7        1           0.008252300   -0.003256412   -0.007302060
      8        1           0.001873980    0.000287034    0.018799667
      9        1          -0.018943540    0.004278088   -0.000653158
     10        1          -0.010329836   -0.005869263   -0.002569105
     11        1           0.014087312    0.003718391   -0.004331774
     12        1           0.001420861    0.001643866    0.007241469
 -------------------------------------------------------------------
 Cartesian Forces:  Max     0.060726879 RMS     0.020837949

 GradGradGradGradGradGradGradGradGradGradGradGradGradGradGradGradGradGrad
 Berny optimization.
 FormGI is forming the generalized inverse of G from B-inverse, IUseBI=4.
 Internal  Forces:  Max     0.112160084 RMS     0.043050331
 Search for a saddle point.
 Step number  64 out of a maximum of  100
 All quantities printed in internal units (Hartrees-Bohrs-Radians)
 Swapping is turned off.
 Update second derivatives using D2CorX and points   27   28   29   30   31
                                                     32   33   34   35   36
                                                     37   38   39   40   41
                                                     42   43   44   45   46
                                                     47   48   49   50   51
                                                     52   53   54   55   56
                                                     57   58   59   60   61
                                                     62   63   64
 ITU=  0  0  0  0  0  0  0  0  0  0  0  0  0  0  0  0  0  0  0  0
 ITU=  0  0  0  0  0  0  0  0  0  0  0  0  0  0  0  0  0  0
     Eigenvalues ---   -0.01294   0.00048   0.00112   0.01202   0.02961
     Eigenvalues ---    0.03047   0.03616   0.03812   0.04547   0.05394
     Eigenvalues ---    0.06055   0.06408   0.07048   0.08032   0.08339
     Eigenvalues ---    0.08510   0.09905   0.10862   0.12835   0.13667
     Eigenvalues ---    0.31285   0.36525   0.43487   0.46873   0.47219
     Eigenvalues ---    0.47482   0.48198   0.64122   1.03279  12.59291
 Eigenvectors required to have negative eigenvalues:
                          D1        D7        D3        D5        D2
   1                   -0.42270   0.35970  -0.35951   0.34355  -0.31055
                          D9        D6        D8        D4        D10
   1                    0.28271   0.26832   0.25845  -0.24736   0.18145
 RFO step:  Lambda0=1.374955378D-03 Lambda=-6.59377911D-02.
 Linear search not attempted -- option 19 set.
 Maximum step size (   0.010) exceeded in Quadratic search.
    -- Step size scaled by   0.020
 Iteration  1 RMS(Cart)=  0.00299755 RMS(Int)=  0.00000188
 Iteration  2 RMS(Cart)=  0.00000249 RMS(Int)=  0.00000014
 Iteration  3 RMS(Cart)=  0.00000000 RMS(Int)=  0.00000014
 Variable       Old X    -DE/DX   Delta X   Delta X   Delta X     New X
                                 (Linear)    (Quad)   (Total)
    R1        1.91706   0.07296   0.00000   0.00150   0.00150   1.91855
    R2        2.41397   0.06511   0.00000   0.00358   0.00358   2.41756
    R3        1.81761   0.00792   0.00000   0.00008   0.00008   1.81769
    R4        2.01438   0.05827   0.00000  -0.00006  -0.00006   2.01432
    R5        2.25630   0.07575   0.00000   0.00535   0.00535   2.26164
    R6        1.81515   0.00453   0.00000  -0.00003  -0.00003   1.81512
    R7        2.33260   0.05851   0.00000   0.00435   0.00435   2.33695
    R8        1.81518   0.00263   0.00000  -0.00003  -0.00003   1.81516
    R9        1.99578   0.06998   0.00000   0.00049   0.00049   1.99627
   R10        2.36282   0.01518   0.00000   0.00468   0.00468   2.36750
   R11        1.81535   0.00700   0.00000   0.00003   0.00003   1.81538
    A1        1.56826   0.10353   0.00000   0.00073   0.00073   1.56899
    A2        1.63385   0.00833   0.00000   0.00165   0.00165   1.63549
    A3        1.64594   0.00429   0.00000   0.00074   0.00074   1.64668
    A4        1.64501   0.11216   0.00000   0.00074   0.00074   1.64575
    A5        1.96538  -0.01112   0.00000  -0.00130  -0.00130   1.96408
    A6        1.65079  -0.02099   0.00000   0.00059   0.00059   1.65137
    A7        1.79643   0.00784   0.00000   0.00089   0.00089   1.79732
    A8        1.62329   0.02403   0.00000   0.00083   0.00083   1.62412
    A9        1.71719   0.01815   0.00000   0.00178   0.00178   1.71898
   A10        1.63967   0.00246   0.00000   0.00066   0.00066   1.64033
   A11        3.12338   0.04127   0.00000  -0.00096  -0.00096   3.12242
   A12        3.12517   0.09052   0.00000  -0.00083  -0.00083   3.12434
   A13        3.06038   0.06245   0.00000  -0.00071  -0.00071   3.05967
   A14        3.15684   0.00285   0.00000  -0.00021  -0.00021   3.15664
   A15        3.09257   0.00441   0.00000   0.00102   0.00102   3.09359
   A16        3.09874   0.00462   0.00000   0.00037   0.00037   3.09910
    D1        0.02860  -0.03257   0.00000   0.00123   0.00123   0.02984
    D2        1.71075   0.00736   0.00000   0.00189   0.00189   1.71264
    D3        1.66183  -0.01009   0.00000   0.00292   0.00292   1.66475
    D4       -2.93921   0.02984   0.00000   0.00358   0.00358  -2.93563
    D5       -1.82052   0.00164   0.00000  -0.00219  -0.00219  -1.82271
    D6        2.81741  -0.01167   0.00000  -0.00294  -0.00294   2.81447
    D7       -0.03754   0.00589   0.00000  -0.00168  -0.00168  -0.03922
    D8       -1.68016  -0.00703   0.00000  -0.00246  -0.00246  -1.68262
    D9       -2.00740   0.00540   0.00000  -0.00048  -0.00048  -2.00787
   D10        2.63317  -0.00753   0.00000  -0.00126  -0.00126   2.63191
         Item               Value     Threshold  Converged?
 Maximum Force            0.112160     0.000015     NO 
 RMS     Force            0.043050     0.000010     NO 
 Maximum Displacement     0.007957     0.000060     NO 
 RMS     Displacement     0.002998     0.000040     NO 
 Predicted change in Energy=-1.275923D-03
 GradGradGradGradGradGradGradGradGradGradGradGradGradGradGradGradGradGrad

                          Input orientation:                          
 ---------------------------------------------------------------------
 Center     Atomic      Atomic             Coordinates (Angstroms)
 Number     Number       Type             X           Y           Z
 ---------------------------------------------------------------------
      1          8           0        0.656109    0.532495    1.956657
      2          8           0        1.814083    0.129193   -0.041617
      3          8           0        2.625459    0.965260    2.959032
      4          8           0        3.796840    0.469697    0.967766
      5          1           0        1.538174    0.737666    2.415576
      6          1           0        1.277109    0.337690    0.855268
      7          1           0        2.887919    0.324500    0.449385
      8          1           0        3.216762    0.771330    2.036456
      9          1           0        0.466211    1.456940    1.770782
     10          1           0        1.959273   -0.811073   -0.173585
     11          1           0        3.957645    1.383513    0.718887
     12          1           0        2.787972    0.162574    3.460950
 ---------------------------------------------------------------------
                    Distance matrix (angstroms):
                    1          2          3          4          5
     1  O    0.000000
     2  O    2.344495   0.000000
     3  O    2.251750   3.218887   0.000000
     4  O    3.293333   2.250805   2.362808   0.000000
     5  H    1.015254   2.546402   1.236661   2.696208   0.000000
     6  H    1.279315   1.065934   2.576376   2.525693   1.631777
     7  H    2.701131   1.196809   2.603418   1.056380   2.420418
     8  H    2.573005   2.588095   1.112832   1.252826   1.721198
     9  H    0.961879   2.620012   2.513173   3.565470   1.442990
    10  H    2.835726   0.960518   3.662301   2.513902   3.046255
    11  H    3.627182   2.597411   2.639680   0.960655   3.024849
    12  H    2.635257   3.635595   0.960540   2.707048   1.727869
                    6          7          8          9         10
     6  H    0.000000
     7  H    1.661212   0.000000
     8  H    2.312035   1.681246   0.000000
     9  H    1.657843   2.982144   2.847135   0.000000
    10  H    1.686281   1.593738   2.994922   3.339713   0.000000
    11  H    2.880559   1.529200   1.630848   3.647190   3.099387
    12  H    3.017109   3.017570   1.607367   3.150020   3.852865
                   11         12
    11  H    0.000000
    12  H    3.221450   0.000000
 Stoichiometry    H8O4
 Framework group  C1[X(H8O4)]
 Deg. of freedom    30
 Full point group                 C1      NOp   1
 Largest Abelian subgroup         C1      NOp   1
 Largest concise Abelian subgroup C1      NOp   1
                         Standard orientation:                         
 ---------------------------------------------------------------------
 Center     Atomic      Atomic             Coordinates (Angstroms)
 Number     Number       Type             X           Y           Z
 ---------------------------------------------------------------------
      1          8           0        1.334217   -0.973861   -0.031576
      2          8           0       -0.991911   -1.262442    0.018466
      3          8           0        1.014592    1.254535    0.018140
      4          8           0       -1.329726    0.962473   -0.023459
      5          1           0        1.200781    0.032118   -0.000885
      6          1           0        0.067102   -1.141283    0.023542
      7          1           0       -1.216614   -0.086918    0.020391
      8          1           0       -0.094570    1.165081    0.030495
      9          1           0        1.459135   -1.049056    0.919188
     10          1           0       -1.341692   -1.406569   -0.864414
     11          1           0       -1.465749    1.129705    0.912697
     12          1           0        1.174232    1.511282   -0.893580
 ---------------------------------------------------------------------
 Rotational constants (GHZ):           5.4167722           4.9192390           2.6674356
