12
 energy: -20.241064629256 gnorm: 0.000941665608 xtb: 6.6.1 (8d0f1dd)
O            0.77392409977373        0.55918408984363        1.88277133311901
O            1.90717158710520        0.13897303081414       -0.01478058148070
O            2.57915512724053        0.92580066586210        2.92781607104038
O            3.72656099823206        0.53473452724362        1.00089690121779
H            1.59501373732101        0.74052310643531        2.43167491537605
H            1.26571410701276        0.33368116450362        0.88363420365393
H            2.83980891761805        0.32641018231568        0.42811408683629
H            3.25000348484359        0.73833801430710        1.97343774650102
H            0.15496335865712        1.30347308476808        1.83332909594556
H            1.78481668664481       -0.76261061337571       -0.34588631810451
H            4.27021773649042        1.28942535111846        0.73163383716194
H            2.83620609805996        0.33185305616374        3.64291622473359
12
 energy: -20.244679166140 gnorm: 0.000189659549 xtb: 6.6.1 (8d0f1dd)
O            0.77044235975345        0.55834105256901        1.88697284340338
O            1.90830539834716        0.13941261234141       -0.02073708140862
O            2.57783449816837        0.92875990665928        2.93325674016479
O            3.73098504127636        0.53225952840061        0.99807525774339
H            1.59071279912902        0.74087070571522        2.43479378342615
H            1.26356081481326        0.33345907333745        0.88251871557233
H            2.84228863568109        0.32551659398566        0.42412819352604
H            3.25238478847367        0.73857023276390        1.97464867930615
H            0.15488594937042        1.30504794057779        1.83460803215041
H            1.78617042609046       -0.76382051206171       -0.34666770414502
H            4.27002468508408        1.29021232340865        0.72955924629818
H            2.83596054281191        0.33115620230249        3.64440080996319
12
 energy: -20.246126519162 gnorm: 0.000509607815 xtb: 6.6.1 (8d0f1dd)
O            0.76891303137104        0.55798968298506        1.88342742531722
O            1.90493355813943        0.13841084522933       -0.01848599291858
O            2.58274830977372        0.92902250659477        2.93192112366530
O            3.73242708368994        0.53395926149140        1.00211411449192
H            1.59476762736914        0.74189873479644        2.43434760688545
H            1.26224353784449        0.33260109929630        0.88207850806391
H            2.84165432400450        0.32544649926719        0.42689802742868
H            3.25466189250899        0.73974138804148        1.97616534589876
H            0.15799753964472        1.30839809807481        1.83174573725708
H            1.78696122164257       -0.76612954115013       -0.34237275849103
H            4.26472649087157        1.29446014258546        0.72754299872890
H            2.83152132213913        0.32398694278766        3.64017537967276
12
 energy: -20.247337822180 gnorm: 0.000946305782 xtb: 6.6.1 (8d0f1dd)
O            0.76768807264167        0.55815858495242        1.88018138646191
O            1.90196224875490        0.13717144110477       -0.01632670305274
O            2.58745450236060        0.92928397892589        2.93072955048521
O            3.73386624008049        0.53561037056407        1.00573822650443
H            1.59848863886700        0.74346123426222        2.43401856028587
H            1.26127502011760        0.33204439431116        0.88173728318089
H            2.84131605722717        0.32514033950037        0.42925939618426
H            3.25664861502178        0.74077193933575        1.97744144341418
H            0.15878350537540        1.31009489172946        1.82926238368535
H            1.78652955482049       -0.76790666105955       -0.33963808117252
H            4.26129157738917        1.29779589282158        0.72657729504521
H            2.82825190634296        0.31815925355162        3.63657677497832
12
 energy: -20.248354587992 gnorm: 0.000700788903 xtb: 6.6.1 (8d0f1dd)
O            0.76649469617314        0.55824370568128        1.87711896182695
O            1.89922102516588        0.13615822327900       -0.01450807437297
O            2.59164838079320        0.92932340526421        2.92959647206839
O            3.73517342658953        0.53702580966502        1.00909903743838
H            1.60184048913015        0.74449542802185        2.43359723000968
H            1.26040696192558        0.33160414023706        0.88132973602745
H            2.84094618127421        0.32489090721786        0.43143813766121
H            3.25825987909873        0.74150676194077        1.97861084514746
H            0.15954610933759        1.31167906358057        1.82708405361251
H            1.78612818823714       -0.76938876001380       -0.33733693260074
H            4.25814969214761        1.30071496632311        0.72580840208094
H            2.82574090912648        0.31353200880284        3.63371964710110
12
 energy: -20.249210078795 gnorm: 0.000811430889 xtb: 6.6.1 (8d0f1dd)
O            0.76518259660504        0.55767623015929        1.87428889561626
O            1.89647136665932        0.13580813440110       -0.01320489566434
O            2.59520240084226        0.92939485533208        2.92833966136529
O            3.73622349863802        0.53791086308398        1.01211401497955
H            1.60465866398311        0.74500468424118        2.43308626311232
H            1.25959684536728        0.33123957908869        0.88088242369072
H            2.84039397163578        0.32491990812024        0.43318470040503
H            3.25918959531745        0.74185540163523        1.97945321341623
H            0.15982534694081        1.31234338402679        1.82536921857678
H            1.78548916322309       -0.77000799216283       -0.33601621597511
H            4.25653372625626        1.30232384155877        0.72602834131183
H            2.82478876353081        0.31131677051524        3.63203189516580
12
 energy: -20.249931304484 gnorm: 0.000645151523 xtb: 6.6.1 (8d0f1dd)
O            0.76402292074459        0.55724746173182        1.87171040168725
O            1.89397765004737        0.13543593293120       -0.01199120695046
O            2.59853403870063        0.92943589016321        2.92715346150089
O            3.73721065317166        0.53877019781191        1.01490101204908
H            1.60722266817182        0.74549145775884        2.43273475614959
H            1.25865659159881        0.33087569977856        0.88034183465472
H            2.83996516965407        0.32491720039356        0.43472309032189
H            3.26034920819850        0.74223692169988        1.98039522370564
H            0.16014281162151        1.31304854968258        1.82384563003307
H            1.78499871766319       -0.77066538766506       -0.33469463481955
H            4.25485796076349        1.30390320629602        0.72604001624724
H            2.82361754866357        0.30908852941723        3.63039793142100
12
 energy: -20.250540931122 gnorm: 0.000492186618 xtb: 6.6.1 (8d0f1dd)
O            0.76294776521698        0.55691013716550        1.86933700998102
O            1.89168915571124        0.13504457989111       -0.01088201748462
O            2.60159126081721        0.92937253213835        2.92605850506860
O            3.73811698883548        0.53961586084989        1.01745892957567
H            1.60956637192262        0.74592909534961        2.43240466383903
H            1.25777542348727        0.33054124194911        0.87983147633363
H            2.83957300098209        0.32491467104134        0.43612807543607
H            3.26139656089315        0.74258859850373        1.98129825377444
H            0.16047334155103        1.31378512052612        1.82241448222047
H            1.78457016386016       -0.77133623314683       -0.33343528094582
H            4.25326936726507        1.30542329513930        0.72604107014484
H            2.82258653845690        0.30699676059252        3.62890234805704
12
 energy: -20.251057291015 gnorm: 0.000364690069 xtb: 6.6.1 (8d0f1dd)
O            0.76194205472101        0.55663398201051        1.86714307259746
O            1.88958461508909        0.13466381130299       -0.00988408984977
O            2.60438789538437        0.92922496165381        2.92503705888662
O            3.73894571380153        0.54042875051262        1.01980291927404
H            1.61170271475577        0.74630939385046        2.43209918177386
H            1.25694905732789        0.33024576224188        0.87934036577781
H            2.83921426464526        0.32492239846708        0.43739468411800
H            3.26232455633720        0.74289379680241        1.98215631493170
H            0.16076288904623        1.31449398070197        1.82108630323819
H            1.78417380627418       -0.77198388221864       -0.33226197049913
H            4.25183014065913        1.30683625010129        0.72606960320421
H            2.82173823095752        0.30511645457338        3.62757407254737
12
 energy: -20.251495460501 gnorm: 0.000275583010 xtb: 6.6.1 (8d0f1dd)
O            0.76099853969687        0.55639623214373        1.86511791247815
O            1.88764839631498        0.13430651466269       -0.00898700623562
O            2.60694158747417        0.92902315402423        2.92408449321477
O            3.73970252330807        0.54119880607755        1.02196043182916
H            1.61365273887565        0.74663301704741        2.43182248826101
H            1.25617309423120        0.32997977774498        0.87887267342119
H            2.83888448220304        0.32493532562492        0.43854571825346
H            3.26314071280521        0.74316521172210        1.98297815328126
H            0.16101929541985        1.31516371497221        1.81985139263621
H            1.78380806565250       -0.77258697492209       -0.33119292330641
H            4.25053233471372        1.30812843648474        0.72610495425613
H            2.82105416830392        0.30344244441729        3.62639922791106
12
 energy: -20.251867929959 gnorm: 0.000212053695 xtb: 6.6.1 (8d0f1dd)
O            0.76011347747546        0.55617502506433        1.86325332779913
O            1.88586814524361        0.13398568873310       -0.00818134226516
O            2.60927226332872        0.92879355715461        2.92319537455493
O            3.74039571048525        0.54191561633350        1.02395538694682
H            1.61543767046680        0.74690419946680        2.43157621669475
H            1.25544542734747        0.32973730475870        0.87843158673034
H            2.83858284628872        0.32495238005564        0.43959850967009
H            3.26385843375153        0.74341305933131        1.98377166721185
H            0.16124115570800        1.31577543900630        1.81870850749560
H            1.78346719518919       -0.77312448373830       -0.33024603767319
H            4.24937095590011        1.30928293416621        0.72612375525517
H            2.82050265781434        0.30197493966756        3.62537056358002
12
 energy: -20.252185075366 gnorm: 0.000160796350 xtb: 6.6.1 (8d0f1dd)
O            0.75923714166208        0.55589200559922        1.86155204131796
O            1.88421032483137        0.13376103322722       -0.00748012341529
O            2.61136799451369        0.92858174729704        2.92232321144378
O            3.74103746474261        0.54252884125037        1.02579314204788
H            1.61705607037525        0.74708673759419        2.43132631286313
H            1.25477622591101        0.32951867637944        0.87803626202090
H            2.83829331128810        0.32499749351043        0.44055292063298
H            3.26441975585886        0.74361390954688        1.98448410208865
H            0.16136847846536        1.31624080724138        1.81770177500015
H            1.78311967243206       -0.77351401026590       -0.32948753539635
H            4.24849490895402        1.31019681935757        0.72622898743863
H            2.82017458996478        0.30088159926191        3.62452641995793
12
 energy: -20.252455552121 gnorm: 0.000115135277 xtb: 6.6.1 (8d0f1dd)
O            0.75845444994549        0.55563726816025        1.85998533732765
O            1.88268909184814        0.13355927638526       -0.00684622263288
O            2.61331198479001        0.92836807476023        2.92151505106247
O            3.74162225945269        0.54309713042414        1.02748920020886
H            1.61855897861960        0.74726896541602        2.43113539973680
H            1.25412509646988        0.32931572210679        0.87764738948222
H            2.83803604870635        0.32503674907246        0.44141478099413
H            3.26497156057994        0.74380868478709        1.98521011802695
H            0.16148353786087        1.31665618915428        1.81676221886081
H            1.78280372037010       -0.77386964605819       -0.32880298576588
H            4.24765907043860        1.31102789659852        0.72627264471998
H            2.81984013991752        0.29987934919288        3.62377458397925
12
 energy: -20.252686620947 gnorm: 0.000087211785 xtb: 6.6.1 (8d0f1dd)
O            0.75772878543677        0.55540683201636        1.85854733696009
O            1.88128896494989        0.13337550211053       -0.00627553177875
O            2.61510185226270        0.92815000215069        2.92075808561305
O            3.74216074185090        0.54362278379645        1.02905366022828
H            1.61995818873195        0.74743306947256        2.43096992353221
H            1.25351590863016        0.32912941493972        0.87728731134823
H            2.83780165018861        0.32507551427264        0.44220494579502
H            3.26545897547781        0.74398508646753        1.98591114577871
H            0.16158280772739        1.31703773917243        1.81588524380433
H            1.78251590504632       -0.77419361369565       -0.32818650403207
H            4.24688851696367        1.31178446577680        0.72630186680541
H            2.81955364173302        0.29897886351966        3.62310003194586
12
 energy: -20.252884339244 gnorm: 0.000069741860 xtb: 6.6.1 (8d0f1dd)
O            0.75705070266812        0.55519551243617        1.85722716568410
O            1.87999992549639        0.13320843859590       -0.00576009008134
O            2.61674703380000        0.92792792848396        2.92004585868236
O            3.74265815011965        0.54410888441662        1.03049577365449
H            1.62125975765269        0.74757763305951        2.43082784633328
H            1.25294557992330        0.32895724436854        0.87695713116653
H            2.83758955290074        0.32511284742560        0.44293018115790
H            3.26588447424491        0.74414240515012        1.98658586531975
H            0.16166972866620        1.31739055395432        1.81506303980104
H            1.78225085617244       -0.77448620585562       -0.32763444539021
H            4.24618162510545        1.31247431663710        0.72632325071790
H            2.81931855224930        0.29817610132750        3.62249593895458
12
 energy: -20.253053794710 gnorm: 0.000059248934 xtb: 6.6.1 (8d0f1dd)
O            0.75641608786408        0.55500210587413        1.85601414807978
O            1.87881469668977        0.13305568113096       -0.00529358752611
O            2.61825906575883        0.92770197416030        2.91937519356893
O            3.74311948633346        0.54455840594792        1.03182590213843
H            1.62247231038717        0.74770502350756        2.43070758503904
H            1.25241189464231        0.32879931823617        0.87665511114366
H            2.83739993604361        0.32514703527973        0.44359792465337
H            3.26625436013996        0.74428394483732        1.98723582895142
H            0.16174761840378        1.31771945833400        1.81428962079622
H            1.78200554734034       -0.77475135115813       -0.32713829729232
H            4.24552731700581        1.31310693509085        0.72633448951815
H            2.81912761839007        0.29745712875891        3.62195359692979
12
 energy: -20.253199267705 gnorm: 0.000052970530 xtb: 6.6.1 (8d0f1dd)
O            0.75582083618440        0.55482190276535        1.85490039195880
O            1.87772278680125        0.13291843236618       -0.00487222287310
O            2.61964804400113        0.92747691701728        2.91874231173712
O            3.74354591083908        0.54497442336438        1.03305190326819
H            1.62360358644650        0.74781676524111        2.43060754950119
H            1.25191069953345        0.32865432156823        0.87637995506426
H            2.83722941355349        0.32518268832727        0.44421123302058
H            3.26657262107044        0.74441459859171        1.98786127822626
H            0.16181342000102        1.31802086469488        1.81356372917091
H            1.78177916194826       -0.77498995681783       -0.32669203641514
H            4.24493409515206        1.31367905066788        0.72633826677673
H            2.81897536346811        0.29681565221328        3.62146515656456
12
 energy: -20.253324366727 gnorm: 0.000078344835 xtb: 6.6.1 (8d0f1dd)
O            0.75528992515004        0.55468702978314        1.85387361794882
O            1.87672476072749        0.13277132421723       -0.00448802681176
O            2.62094892237463        0.92723670214921        2.91816649974679
O            3.74393529348868        0.54537833332487        1.03418331833693
H            1.62468183942455        0.74793725238689        2.43053877424871
H            1.25143720990726        0.32852272199890        0.87611940962937
H            2.83707881036794        0.32520738208638        0.44478132155547
H            3.26687824525613        0.74453491744521        1.98848856718253
H            0.16190087189839        1.31833265518178        1.81285085979781
H            1.78158285154420       -0.77524139587885       -0.32625884248005
H            4.24430432638933        1.31425398543040        0.72628637640080
H            2.81879288247055        0.29616475187457        3.62101564044493
12
 energy: -20.253432133284 gnorm: 0.000072256498 xtb: 6.6.1 (8d0f1dd)
O            0.75476880919254        0.55454354666618        1.85293359054278
O            1.87580085024796        0.13265192997231       -0.00414107446208
O            2.62212627432389        0.92701099581569        2.91760577678811
O            3.74430336310897        0.54574085276091        1.03522477988491
H            1.62567749541696        0.74803197217319        2.43047351967059
H            1.25099852196845        0.32840445517605        0.87589564987637
H            2.83694570540747        0.32524090214285        0.44530446738865
H            3.26710950014311        0.74464722363967        1.98906953737694
H            0.16194532004519        1.31859546569323        1.81220121657903
H            1.78139288243899       -0.77544659091544       -0.32588407387226
H            4.24379618788637        1.31473919903186        0.72626689027908
H            2.81869102881928        0.29562570784321        3.62060723594824
12
 energy: -20.253525136028 gnorm: 0.000067528977 xtb: 6.6.1 (8d0f1dd)
O            0.75427751311466        0.55439725041070        1.85207266500553
O            1.87494682701518        0.13255990827146       -0.00383196787335
O            2.62320552374935        0.92680016917990        2.91707075388057
O            3.74464431221963        0.54606638937154        1.03618534427059
H            1.62660786087087        0.74811605409134        2.43042590393654
H            1.25058425372822        0.32829983000647        0.87569361096819
H            2.83682688006497        0.32528069926033        0.44578363920887
H            3.26730029527861        0.74475302900487        1.98962710685062
H            0.16196033128146        1.31880983047722        1.81159794960783
H            1.78121535904161       -0.77561477872701       -0.32555519399578
H            4.24336449245898        1.31514997675677        0.72624513678830
H            2.81862229017564        0.29516730189610        3.62024256735243
12
 energy: -20.253605547051 gnorm: 0.000449501948 xtb: 6.6.1 (8d0f1dd)
O            0.75381351797689        0.55424167784789        1.85128106448497
O            1.87415027492559        0.13249396425633       -0.00355236021678
O            2.62418678657357        0.92660736968549        2.91656062748131
O            3.74496774351522        0.54635685455492        1.03706658009604
H            1.62747340790891        0.74818406860701        2.43039045492444
H            1.25019150608431        0.32820262197422        0.87551878371438
H            2.83671967162992        0.32532684723386        0.44622123748821
H            3.26744863348055        0.74485734624498        1.99016190994140
H            0.16195365769844        1.31898213973540        1.81103969615364
H            1.78104749380834       -0.77574461599677       -0.32527430396533
H            4.24301400491826        1.31548838961884        0.72622735978180
H            2.81858924047918        0.29478899623751        3.61991646611626
12
 energy: -20.253675223205 gnorm: 0.000418386901 xtb: 6.6.1 (8d0f1dd)
O            0.75337874834501        0.55411666555157        1.85057027409395
O            1.87343651587086        0.13242649017724       -0.00331033015840
O            2.62511532555724        0.92641162062052        2.91607795101116
O            3.74524494658713        0.54663019139209        1.03789570943405
H            1.62830876852479        0.74826282925992        2.43037891452400
H            1.24982243198160        0.32811832652642        0.87535167788552
H            2.83662911379397        0.32536729973496        0.44663538690776
H            3.26758509469006        0.74494770349811        1.99068473253046
H            0.16195275774067        1.31915181575857        1.81049701496268
H            1.78090890481967       -0.77587677465826       -0.32500925700156
H            4.24263799620845        1.31581764847868        0.72617198744709
H            2.81853533487973        0.29441184365986        3.61961345436362
12
 energy: -20.253735712357 gnorm: 0.000528145438 xtb: 6.6.1 (8d0f1dd)
O            0.75296928123452        0.55398916867661        1.84991141395896
O            1.87276677110253        0.13237212574311       -0.00308541894955
O            2.62595457148991        0.92622627602528        2.91562037651016
O            3.74551793860172        0.54688026022702        1.03865178728248
H            1.62908598517073        0.74832645744250        2.43037393042526
H            1.24947416885142        0.32803854909916        0.87521394611154
H            2.83655101079208        0.32541038052601        0.44701474476628
H            3.26768389242733        0.74503931933559        1.99118683848235
H            0.16194177349899        1.31930043712517        1.80998800293511
H            1.78077481337821       -0.77598551566429       -0.32477546171399
H            4.24232410008195        1.31610170941092        0.72612263506759
H            2.81851163236979        0.29408649205261        3.61933472112414
12
 energy: -20.253788344752 gnorm: 0.000659327979 xtb: 6.6.1 (8d0f1dd)
O            0.75258363713835        0.55386164155856        1.84931039712960
O            1.87214559342878        0.13233335671578       -0.00288491573205
O            2.62672788952510        0.92605080582703        2.91518177757680
O            3.74577104709102        0.54710424048431        1.03934524404291
H            1.62982053769530        0.74838470350771        2.43037974386026
H            1.24914289662607        0.32796552528242        0.87509518753257
H            2.83648193920303        0.32545985169875        0.44736153107629
H            3.26775862236474        0.74512023219001        1.99166936409963
H            0.16191939281241        1.31942201013534        1.80950971117507
H            1.78065378929474       -0.77607284998788       -0.32457217050094
H            4.24205295460146        1.31634384455696        0.72607307418536
H            2.81849763921821        0.29381229803069        3.61908857155482
12
 energy: -20.253834271945 gnorm: 0.000235807315 xtb: 6.6.1 (8d0f1dd)
O            0.75224461671970        0.55374338919745        1.84874739815886
O            1.87156355945692        0.13230096285045       -0.00269342113941
O            2.62743338666884        0.92588049503034        2.91478685620952
O            3.74602406458175        0.54731412999209        1.03998209946295
H            1.63052139983135        0.74843708504357        2.43039875670392
H            1.24883457627963        0.32790009734766        0.87499374513563
H            2.83642806939903        0.32549585809493        0.44769051356523
H            3.26782205930407        0.74520378672438        1.99215096687030
H            0.16190693194669        1.31953585275136        1.80903648992504
H            1.78053204934097       -0.77614759358666       -0.32438865685613
H            4.24177404977644        1.31657371880079        0.72598533828431
H            2.81847117569384        0.29354787775331        3.61886742968010
12
 energy: -20.253874401534 gnorm: 0.000707472975 xtb: 6.6.1 (8d0f1dd)
O            0.75189021663058        0.55362826469245        1.84825099446909
O            1.87104874092431        0.13227551426797       -0.00253905587010
O            2.62809057221242        0.92572040110169        2.91438105391863
O            3.74623528170115        0.54749934518087        1.04058180662185
H            1.63117822892515        0.74848687736726        2.43042492549112
H            1.24853783147840        0.32784025783199        0.87490567299823
H            2.83638491818183        0.32554206199391        0.44799213937266
H            3.26784949066128        0.74527643070701        1.99259840049261
H            0.16187332564731        1.31963066103725        1.80861283510494
H            1.78043076234046       -0.77620823415077       -0.32423393216977
H            4.24155310573307        1.31675900580214        0.72592757264159
H            2.81848346456328        0.29333507416791        3.61865510292946
12
 energy: -20.253909609353 gnorm: 0.000179410941 xtb: 6.6.1 (8d0f1dd)
O            0.75158225279628        0.55351486168820        1.84777464785271
O            1.87055139661795        0.13226147139430       -0.00237884098191
O            2.62868349244303        0.92556655957313        2.91402478742312
O            3.74645301399793        0.54767308515141        1.04112049773374
H            1.63180623052889        0.74853013896443        2.43046177460184
H            1.24826262154523        0.32778686213783        0.87483264515624
H            2.83635290114741        0.32558148568640        0.44827705288062
H            3.26787218536413        0.74535296549205        1.99304226738731
H            0.16184792916871        1.31971386138338        1.80818781064132
H            1.78032661610032       -0.77625662359250       -0.32408876440623
H            4.24133647904538        1.31693083307583        0.72583617537781
H            2.81848082024398        0.29313015904520        3.61846746233372
12
 energy: -20.253940542538 gnorm: 0.000066221965 xtb: 6.6.1 (8d0f1dd)
O            0.75127101194139        0.55339970362694        1.84734521117033
O            1.87010532591904        0.13225717629837       -0.00224775599335
O            2.62923153399492        0.92542357453385        2.91366895372967
O            3.74664263980256        0.54782364855078        1.04162217099069
H            1.63239221298157        0.74856391390417        2.43050566384024
H            1.24799564998387        0.32773873180947        0.87477217553978
H            2.83632706881794        0.32562567810042        0.44853691841940
H            3.26786320412227        0.74542336751879        1.99346317405971
H            0.16180853091860        1.31977878642314        1.80780109679905
H            1.78023509756221       -0.77628789357463       -0.32397359005159
H            4.24116852156794        1.31706219260182        0.72576687207488
H            2.81851514138692        0.29297678020655        3.61829662542147
12
 energy: -20.253967805607 gnorm: 0.000080634701 xtb: 6.6.1 (8d0f1dd)
O            0.75098518315487        0.55329058286683        1.84695424479948
O            1.86968947372999        0.13225812179948       -0.00213115553292
O            2.62973267676752        0.92528551018794        2.91333370941950
O            3.74682290744755        0.54796231655819        1.04208854857150
H            1.63295370054085        0.74859635823077        2.43055846851448
H            1.24774336521516        0.32769499896200        0.87472419407192
H            2.83631071392595        0.32566874715966        0.44878164962850
H            3.26784406873197        0.74549162765697        1.99387492769233
H            0.16177220008135        1.31983486863171        1.80742332033762
H            1.78015028859663       -0.77631079947571       -0.32387211462322
H            4.24100610814410        1.31717763751913        0.72568105268846
H            2.81854525266328        0.29283568990269        3.61814067043265
12
 energy: -20.253991891593 gnorm: 0.000936161944 xtb: 6.6.1 (8d0f1dd)
O            0.75071750950229        0.55319146851710        1.84660726482579
O            1.86930260620206        0.13225921971545       -0.00203060338097
O            2.63018918301989        0.92514766154316        2.91301413867512
O            3.74698800436878        0.54809259664844        1.04252899009031
H            1.63349689164688        0.74862611309033        2.43062293052326
H            1.24750634093464        0.32765086930960        0.87468696014602
H            2.83630604236675        0.32571280533545        0.44901523980885
H            3.26781692874491        0.74555677857718        1.99427369394233