12
 energy: -20.323704079921 gnorm: 0.004771175740 xtb: 6.6.1 (8d0f1dd)
O            0.56738634725862        0.60999402487816        1.87375824628373
O            1.82444849673590        0.02980268618205       -0.15534239098411
O            2.68214166628542        0.90572026098723        3.08767454772871
O            3.92059430650864        0.60792329558406        0.98731055061728
H            1.58492705068042        0.77095122595315        2.54517268798348
H            1.13108242060350        0.30786902299995        0.82044561352080
H            2.90879812437121        0.30470810075809        0.34888119053008
H            3.36861434274087        0.76953271903124        2.07049490783442
H            0.19812332368983        1.48623700756547        1.73623296023598
H            1.80242324189756       -0.92770466710419       -0.23320912135720
H            4.17512921284973        1.48347608017392        0.68423764681657
H            2.81988740537493        0.11127590299023        3.60990067678799
12
 energy: -20.323691746476 gnorm: 0.030637436282 xtb: 6.6.1 (8d0f1dd)
O            0.56736766550611        0.60996500382948        1.87364882004127
O            1.82457646419187        0.02980542549369       -0.15536647928601
O            2.68199318055325        0.90572753098697        3.08774636575435
O            3.92062924232006        0.60797382464433        0.98749032318893
H            1.58504363892102        0.77092238927445        2.54524749289975
H            1.13100614160928        0.30794678395097        0.82055702327587
H            2.90863168455982        0.30461755768480        0.34880048260488
H            3.36875850362605        0.76951960632893        2.07024835475942
H            0.19812650104682        1.48624060385187        1.73624204908900
H            1.80241096248315       -0.92770491533180       -0.23320385018004
H            4.17512149987817        1.48348617062526        0.68424027101685
H            2.81989045430103        0.11128567866041        3.60990666283346
12
 energy: -20.323704385158 gnorm: 0.000338858157 xtb: 6.6.1 (8d0f1dd)
O            0.56738770237455        0.60998799415003        1.87373584504455
O            1.82446564227476        0.02980152532778       -0.15535054834341
O            2.68211436423433        0.90572347825903        3.08768080543513
O            3.92060655909513        0.60793530072420        0.98734036135892
H            1.58493704779066        0.77090609965240        2.54518458197988
H            1.13107581528758        0.30791617836825        0.82044301298589
H            2.90878489433941        0.30465912329537        0.34888383675146
H            3.36863348039418        0.76955099675534        2.07045629977378
H            0.19812754516800        1.48624048419164        1.73624628845041
H            1.80240669514154       -0.92770491645584       -0.23320445790060
H            4.17512062591643        1.48348331473068        0.68423608801102
H            2.81989556698005        0.11128608100050        3.60990540245070
12
 energy: -20.323704260657 gnorm: 0.002938986963 xtb: 6.6.1 (8d0f1dd)
O            0.56737988768477        0.60999305602879        1.87375557646170
O            1.82445220031167        0.02980282846929       -0.15534583869866
O            2.68214818853573        0.90571953346379        3.08766093044727
O            3.92059316722114        0.60791543277908        0.98729152467400
H            1.58497985317715        0.77099994135818        2.54519318554359
H            1.13105926216486        0.30784085998099        0.82049108427667
H            2.90873938068204        0.30474805952400        0.34883953080447
H            3.36863968334274        0.76947239385487        2.07047115428639
H            0.19811177395639        1.48622669097591        1.73620583087876
H            1.80246051236770       -0.92770667316797       -0.23320984751408
H            4.17513910376288        1.48348731986545        0.68428476167610
H            2.81985292578957        0.11128621686697        3.60991962316153
12
 energy: -20.323704371999 gnorm: 0.000918711263 xtb: 6.6.1 (8d0f1dd)
O            0.56738545214002        0.60999439196734        1.87376111820930
O            1.82444796325678        0.02980283471284       -0.15534476602106
O            2.68214853042826        0.90572061355427        3.08766977846185
O            3.92059050663581        0.60791730341471        0.98729993376791
H            1.58496381070621        0.77099048945759        2.54518531866296
H            1.13106291024798        0.30784609877505        0.82048353010886
H            2.90874694641737        0.30474096428019        0.34884533252382
H            3.36864782796912        0.76947717284744        2.07045589907346
H            0.19811235341099        1.48622755377895        1.73620830975137
H            1.80245684688857       -0.92770629271377       -0.23320913047611
H            4.17513789092612        1.48348798974961        0.68428288785766
H            2.81985489996940        0.11128654017512        3.60991930407770
