 Entering Gaussian System, Link 0=/opt/g16C01/g16
 Input=Freq_TS.gjf
 Output=Freq_TS.log
 Initial command:
 /opt/g16C01/l1.exe "/scratch/Gau-349433.inp" -scrdir="/scratch/"
 Entering Link 1 = /opt/g16C01/l1.exe PID=    349434.
  
 Copyright (c) 1988-2019, Gaussian, Inc.  All Rights Reserved.
  
 This is part of the Gaussian(R) 16 program.  It is based on
 the Gaussian(R) 09 system (copyright 2009, Gaussian, Inc.),
 the Gaussian(R) 03 system (copyright 2003, Gaussian, Inc.),
 the Gaussian(R) 98 system (copyright 1998, Gaussian, Inc.),
 the Gaussian(R) 94 system (copyright 1995, Gaussian, Inc.),
 the Gaussian 92(TM) system (copyright 1992, Gaussian, Inc.),
 the Gaussian 90(TM) system (copyright 1990, Gaussian, Inc.),
 the Gaussian 88(TM) system (copyright 1988, Gaussian, Inc.),
 the Gaussian 86(TM) system (copyright 1986, Carnegie Mellon
 University), and the Gaussian 82(TM) system (copyright 1983,
 Carnegie Mellon University). Gaussian is a federally registered
 trademark of Gaussian, Inc.
  
 This software contains proprietary and confidential information,
 including trade secrets, belonging to Gaussian, Inc.
  
 This software is provided under written license and may be
 used, copied, transmitted, or stored only in accord with that
 written license.
  
 The following legend is applicable only to US Government
 contracts under FAR:
  
                    RESTRICTED RIGHTS LEGEND
  
 Use, reproduction and disclosure by the US Government is
 subject to restrictions as set forth in subparagraphs (a)
 and (c) of the Commercial Computer Software - Restricted
 Rights clause in FAR 52.227-19.
  
 Gaussian, Inc.
 340 Quinnipiac St., Bldg. 40, Wallingford CT 06492
  
  
 ---------------------------------------------------------------
 Warning -- This program may not be used in any manner that
 competes with the business of Gaussian, Inc. or will provide
 assistance to any competitor of Gaussian, Inc.  The licensee
 of this program is prohibited from giving any competitor of
 Gaussian, Inc. access to this program.  By using this program,
 the user acknowledges that Gaussian, Inc. is engaged in the
 business of creating and licensing software in the field of
 computational chemistry and represents and warrants to the
 licensee that it is not a competitor of Gaussian, Inc. and that
 it will not use this program in any manner prohibited above.
 ---------------------------------------------------------------
  

 Cite this work as:
 Gaussian 16, Revision C.01,
 M. J. Frisch, G. W. Trucks, H. B. Schlegel, G. E. Scuseria, 
 M. A. Robb, J. R. Cheeseman, G. Scalmani, V. Barone, 
 G. A. Petersson, H. Nakatsuji, X. Li, M. Caricato, A. V. Marenich, 
 J. Bloino, B. G. Janesko, R. Gomperts, B. Mennucci, H. P. Hratchian, 
 J. V. Ortiz, A. F. Izmaylov, J. L. Sonnenberg, D. Williams-Young, 
 F. Ding, F. Lipparini, F. Egidi, J. Goings, B. Peng, A. Petrone, 
 T. Henderson, D. Ranasinghe, V. G. Zakrzewski, J. Gao, N. Rega, 
 G. Zheng, W. Liang, M. Hada, M. Ehara, K. Toyota, R. Fukuda, 
 J. Hasegawa, M. Ishida, T. Nakajima, Y. Honda, O. Kitao, H. Nakai, 
 T. Vreven, K. Throssell, J. A. Montgomery, Jr., J. E. Peralta, 
 F. Ogliaro, M. J. Bearpark, J. J. Heyd, E. N. Brothers, K. N. Kudin, 
 V. N. Staroverov, T. A. Keith, R. Kobayashi, J. Normand, 
 K. Raghavachari, A. P. Rendell, J. C. Burant, S. S. Iyengar, 
 J. Tomasi, M. Cossi, J. M. Millam, M. Klene, C. Adamo, R. Cammi, 
 J. W. Ochterski, R. L. Martin, K. Morokuma, O. Farkas, 
 J. B. Foresman, and D. J. Fox, Gaussian, Inc., Wallingford CT, 2019.
 
 ******************************************
 Gaussian 16:  ES64L-G16RevC.01  3-Jul-2019
                26-Nov-2023 
 ******************************************
 %nprocs=1
 Will use up to    1 processors via shared memory.
 -------------------------------------------
 # freq=noraman external="xtb-gaussian -P 4"
 -------------------------------------------
 1/10=4,18=10,30=1,38=1/1,3;
 2/12=2,17=6,18=5,40=1/2;
 3/11=9,25=1,30=1,41=9900000,43=2,71=2,140=1/1;
 4/20=17,22=2,24=3,113=1,114=1/2;
 6/7=2,8=2,9=2,10=2/1;
 7/8=1,25=1,44=-1/16;
 1/10=4,18=10,30=1/3;
 99//99;
 ----
 conf
 ----
 Symbolic Z-matrix:
 Charge =  0 Multiplicity = 1
 C                     0.71999   0.15735   1.37492 
 C                     1.97777  -0.47744   1.10467 
 C                     2.77919  -0.19891   0.00768 
 C                     0.36783   1.35768   0.51282 
 H                     2.354    -1.17018   1.84284 
 O                     3.85535  -0.7994   -0.2377 
 C                     2.35229   0.94421  -0.9198 
 C                     0.84918   1.21633  -0.93635 
 C                     0.56369   2.5321   -1.66888 
 H                     0.9415    2.48309  -2.68724 
 H                    -0.50645   2.72097  -1.70501 
 H                     1.047     3.36648  -1.16581 
 C                     0.12431   0.08049  -1.66049 
 H                     0.37147   0.10183  -2.71948 
 H                     0.43224  -0.87906  -1.25808 
 H                    -0.95162   0.1785   -1.54708 
 H                     2.71713   0.71986  -1.92496 
 H                    -0.7127    1.49692   0.55081 
 H                     0.84842   2.22216   0.97396 
 H                     2.88961   1.83351  -0.5732 
 O                     0.49615   0.49057   2.74256 
 S                     1.35523  -0.12732   3.94567 
 O                     2.67054   0.44225   3.99046 
 O                     1.27041  -1.56435   3.93577 
 C                     0.35661   0.52852   5.27925 
 H                    -0.6335    0.10292   5.19531 
 H                     0.34162   1.6029    5.15958 
 H                     0.82981   0.24508   6.21082 
 C                     0.41262  -2.9577    1.38416 
 N                    -0.4478   -1.98081   1.67866 
 H                     1.16512  -2.9046    0.62281 
 C                    -1.22916  -2.37747   2.72336 
 O                    -0.50016  -0.78566   1.09283 
 C                    -0.8252   -3.6328    3.05464 
 H                    -1.99927  -1.74903   3.11917 
 H                    -1.18285  -4.29302   3.81838 
 N                     0.19559  -3.97425   2.22146 
 C                     0.93873  -5.206     2.27856 
 H                     0.25002  -6.05088   2.30506 
 H                     1.58139  -5.2845    1.40417 
 H                     1.55913  -5.21939   3.17649 
 

 GradGradGradGradGradGradGradGradGradGradGradGradGradGradGradGradGradGrad
 Berny optimization.
 Initialization pass.
 Trust Radius=3.00D-01 FncErr=1.00D-07 GrdErr=1.00D-07 EigMax=2.50D+02 EigMin=1.00D-04
 Number of steps in this run=      2 maximum allowed number of steps=      2.
 GradGradGradGradGradGradGradGradGradGradGradGradGradGradGradGradGradGrad

                          Input orientation:                          
 ---------------------------------------------------------------------
 Center     Atomic      Atomic             Coordinates (Angstroms)
 Number     Number       Type             X           Y           Z
 ---------------------------------------------------------------------
      1          6           0        0.719994    0.157346    1.374921
      2          6           0        1.977772   -0.477445    1.104668
      3          6           0        2.779189   -0.198911    0.007681
      4          6           0        0.367826    1.357676    0.512825
      5          1           0        2.353998   -1.170180    1.842839
      6          8           0        3.855353   -0.799403   -0.237697
      7          6           0        2.352286    0.944206   -0.919798
      8          6           0        0.849175    1.216330   -0.936348
      9          6           0        0.563693    2.532105   -1.668884
     10          1           0        0.941499    2.483090   -2.687239
     11          1           0       -0.506449    2.720973   -1.705015
     12          1           0        1.047005    3.366480   -1.165808
     13          6           0        0.124308    0.080489   -1.660492
     14          1           0        0.371468    0.101833   -2.719476
     15          1           0        0.432240   -0.879059   -1.258076
     16          1           0       -0.951624    0.178495   -1.547079
     17          1           0        2.717131    0.719858   -1.924962
     18          1           0       -0.712701    1.496924    0.550811
     19          1           0        0.848420    2.222165    0.973961
     20          1           0        2.889613    1.833514   -0.573201
     21          8           0        0.496145    0.490568    2.742565
     22         16           0        1.355226   -0.127322    3.945674
     23          8           0        2.670541    0.442249    3.990461
     24          8           0        1.270415   -1.564351    3.935770
     25          6           0        0.356606    0.528521    5.279254
     26          1           0       -0.633503    0.102922    5.195309
     27          1           0        0.341620    1.602898    5.159580
     28          1           0        0.829808    0.245083    6.210818
     29          6           0        0.412617   -2.957701    1.384164
     30          7           0       -0.447798   -1.980806    1.678663
     31          1           0        1.165121   -2.904600    0.622806
     32          6           0       -1.229157   -2.377472    2.723359
     33          8           0       -0.500164   -0.785665    1.092830
     34          6           0       -0.825202   -3.632803    3.054644
     35          1           0       -1.999272   -1.749034    3.119165
     36          1           0       -1.182852   -4.293015    3.818377
     37          7           0        0.195588   -3.974249    2.221457
     38          6           0        0.938731   -5.205999    2.278560
     39          1           0        0.250019   -6.050883    2.305065
     40          1           0        1.581395   -5.284498    1.404172
     41          1           0        1.559130   -5.219391    3.176491
 ---------------------------------------------------------------------
                    Distance matrix (angstroms):
                    1          2          3          4          5
     1  C    0.000000
     2  C    1.434573   0.000000
     3  C    2.497307   1.386805   0.000000
     4  C    1.519218   2.511946   2.914242   0.000000
     5  H    2.156674   1.079965   2.119423   3.479062   0.000000
     6  O    3.653269   2.330431   1.256555   4.168827   2.592329
     7  C    2.923911   2.501961   1.532703   2.482226   3.478907
     8  C    2.545603   2.882420   2.572751   1.533551   3.960277
     9  C    3.863762   4.330080   3.895862   2.485457   5.407800
    10  H    4.686074   4.921096   4.222894   3.440359   5.988585
    11  H    4.190745   4.929051   4.717464   2.746224   5.992536
    12  H    4.106188   4.560389   4.133951   2.704512   5.598345
    13  C    3.094265   3.375311   3.147897   2.532551   4.336936
    14  H    4.109578   4.188060   3.650336   3.467697   5.134507
    15  H    2.844224   2.851758   2.751892   2.853634   3.659724
    16  H    3.366428   4.005419   4.059394   2.715625   4.923170
    17  H    3.897973   3.340485   2.140817   3.445120   4.230890
    18  H    2.127496   3.382829   3.919712   1.090124   4.264671
    19  H    2.107306   2.929234   3.243944   1.091310   3.811786
    20  H    3.363326   2.997871   2.116689   2.786626   3.891826
    21  O    1.425341   2.411426   3.628671   2.395847   2.649378
    22  S    2.663331   2.929414   4.188148   3.868415   2.550885
    23  O    3.275187   3.107019   4.035520   4.270182   2.704145
    24  O    3.134510   3.113978   4.423879   4.590149   2.389536
    25  C    3.938736   4.589915   5.847011   4.838023   4.322512
    26  H    4.053429   4.887630   6.216836   4.950023   4.667441
    27  H    4.068960   4.842224   5.977485   4.653295   4.768690
    28  H    4.837940   5.283242   6.517371   5.823952   4.837909
    29  C    3.130190   2.946100   3.886681   4.402695   2.678540
    30  N    2.455136   2.910834   4.047316   3.629033   2.921323
    31  H    3.184231   2.604549   3.210038   4.337600   2.431074
    32  C    3.470271   4.063824   5.309225   4.624732   3.882251
    33  O    1.567683   2.497060   3.503710   2.384056   2.976005
    34  C    4.424289   4.649232   5.836714   5.726172   4.200036
    35  H    3.751145   4.635949   5.909137   4.695510   4.573297
    36  H    5.421902   5.649101   6.854258   6.727673   5.115091
    37  N    4.249906   4.080568   5.082221   5.601653   3.558776
    38  C    5.443333   4.981651   5.797853   6.820966   4.298915
    39  H    6.295089   5.957289   6.776447   7.623172   5.334945
    40  H    5.509676   4.832658   5.408150   6.810707   4.209152
    41  H    5.732287   5.191702   6.060950   7.195286   4.336653
                    6          7          8          9         10
     6  O    0.000000
     7  C    2.400967   0.000000
     8  C    3.686244   1.527634   0.000000
     9  C    4.897169   2.506315   1.532767   0.000000
    10  H    5.026486   2.735386   2.163060   1.087284   0.000000
    11  H    5.794082   3.456274   2.166222   1.087281   1.765759
    12  H    5.109089   2.762552   2.171390   1.087592   1.762459
    13  C    4.088918   2.501703   1.529690   2.490692   2.737609
    14  H    4.371374   2.805722   2.156352   2.654603   2.448747
    15  H    3.572844   2.669326   2.160555   3.438325   3.688617
    16  H    5.077183   3.449002   2.166327   2.801875   3.192967
    17  H    2.539796   1.092611   2.170967   2.826147   2.615899
    18  H    5.173198   3.444174   2.174818   2.761852   3.767476
    19  H    4.431662   2.735163   2.158931   2.676146   3.671666
    20  H    2.824441   1.095317   2.162447   2.664292   2.947246
    21  O    4.672286   4.130853   3.766399   4.861411   5.800971
    22  S    4.919646   5.080858   5.088775   6.262774   7.140096
    23  O    4.563200   4.946098   5.309427   6.390187   7.193490
    24  O    4.968387   5.571341   5.625581   6.978005   7.768798
    25  C    6.666435   6.525624   6.272910   7.234214   8.223591
    26  H    7.105038   6.856911   6.405874   7.379116   8.383341
    27  H    6.873716   6.437041   6.129224   6.894974   7.918786
    28  H    7.199182   7.324780   7.212883   8.209202   9.175870
    29  C    4.375056   4.929040   4.795612   6.283462   6.816030
    30  N    4.856465   4.811253   4.329214   5.709251   6.396688
    31  H    3.522735   4.313037   4.417334   5.930541   6.327212
    32  C    6.091830   6.093675   5.534287   6.827156   7.590217
    33  O    4.554230   3.896100   3.153769   4.445947   5.201161
    34  C    6.385551   6.844094   6.499665   7.889666   8.572900
    35  H    6.815200   6.519419   5.775311   6.915371   7.763591
    36  H    7.351228   7.897846   7.555754   8.929877   9.630759
    37  N    5.433319   6.221738   6.110729   7.589657   8.145484
    38  C    5.852889   7.074789   7.182614   8.694895   9.153210
    39  H    6.858725   7.984393   7.979857   9.463526   9.911102
    40  H    5.289867   6.692672   6.948017   8.460417   8.802530
    41  H    6.038676   7.443024   7.670592   9.195338   9.700156
                   11         12         13         14         15
    11  H    0.000000
    12  H    1.766534   0.000000
    13  C    2.715141   3.448741   0.000000
    14  H    2.942748   3.678064   1.087653   0.000000
    15  H    3.747148   4.290810   1.085123   1.761116   0.000000
    16  H    2.585985   3.781948   1.086323   1.769453   1.765509
    17  H    3.800566   3.220286   2.683554   2.552517   2.867402
    18  H    2.574798   3.088460   2.756217   3.717052   3.198164
    19  H    3.043253   2.434647   3.471520   4.285413   3.843538
    20  H    3.688065   2.469083   3.449958   3.734471   3.723679
    21  O    5.075517   4.883615   4.437718   5.477276   4.229077
    22  S    6.596128   6.199106   5.743470   6.741255   5.338168
    23  O    6.908277   6.146064   6.208658   7.101047   5.856875
    24  O    7.303403   7.098528   5.944511   6.919290   5.305488
    25  C    7.371005   7.075980   6.958072   8.010116   6.687577
    26  H    7.381382   7.344299   6.897593   7.978332   6.614097
    27  H    7.006567   6.604417   6.991304   8.020824   6.881471
    28  H    8.400954   8.012797   7.904578   8.943196   7.563474
    29  C    6.529552   6.848363   4.310876   5.118819   3.361930
    30  N    5.793051   6.238503   3.965627   4.934795   3.257722
    31  H    6.313475   6.522234   3.899679   4.565016   2.859659
    32  C    6.791682   7.300652   5.204959   6.191398   4.566981
    33  O    4.486032   4.973478   2.953129   4.010121   2.530783
    34  C    7.945214   8.384947   6.076398   6.979970   5.269139
    35  H    6.744049   7.335481   5.540927   6.567789   5.082259
    36  H    8.953290   9.406499   7.131214   8.029577   6.327242
    37  N    7.793332   8.129254   5.613868   6.407667   4.662977
    38  C    8.988564   9.239198   6.642768   7.312675   5.611304
    39  H    9.674628  10.068211   7.303093   7.944600   6.283068
    40  H    8.838195   9.040453   6.348098   6.890642   5.274089
    41  H    9.546994   9.635093   7.317367   8.030467   6.306644
                   16         17         18         19         20
    16  H    0.000000
    17  H    3.727684   0.000000
    18  H    2.489273   4.300817   0.000000
    19  H    3.711116   3.762015   1.772605   0.000000
    20  H    4.294488   1.759898   3.788583   2.590604   0.000000
    21  O    4.538113   5.174085   2.697749   2.500097   4.304242
    22  S    5.965351   6.085792   4.294135   3.822044   5.159405
    23  O    6.622234   5.922116   4.938609   3.948101   4.776046
    24  O    6.167382   6.454361   4.976153   4.825774   5.873509
    25  C    6.959368   7.583496   4.943621   4.652511   6.509252
    26  H    6.750311   7.893390   4.849832   4.950461   6.977321
    27  H    6.977154   7.524198   4.729014   4.261426   6.277757
    28  H    7.960082   8.365304   5.998510   5.597667   7.265592
    29  C    4.504339   5.457613   4.669529   5.214327   5.737817
    30  N    3.914311   5.504222   3.665627   4.454408   5.546011
    31  H    4.323712   4.694310   4.785897   5.148526   5.182088
    32  C    4.984640   6.839117   4.471871   5.341664   6.750110
    33  O    2.846496   4.660971   2.355667   3.298461   4.596341
    34  C    5.976439   7.502683   5.709285   6.435130   7.539346
    35  H    5.156236   7.333696   4.334507   5.336822   7.097142
    36  H    6.988274   8.562984   6.664939   7.393533   8.567689
    37  N    5.723918   6.751711   5.792217   6.354367   6.985556
    38  C    6.870351   7.479844   7.116285   7.542397   7.841761
    39  H    7.422136   8.355997   7.808560   8.400788   8.798613
    40  H    6.705994   6.958830   7.209631   7.554622   7.502502
    41  H    7.599551   7.914573   7.560707   7.793138   8.097768
                   21         22         23         24         25
    21  O    0.000000
    22  S    1.602273   0.000000
    23  O    2.507504   1.434040   0.000000
    24  O    2.499184   1.439563   2.447403   0.000000
    25  C    2.540807   1.790477   2.650043   2.649548   0.000000
    26  H    2.728063   2.360009   3.533201   2.826860   1.080970
    27  H    2.665168   2.344062   2.852687   3.520204   1.081126
    28  H    3.492903   2.354916   2.890876   2.940073   1.082622
    29  C    3.707127   3.932034   4.842588   3.031161   5.227677
    30  N    2.851421   3.438842   4.575985   2.867093   4.461843
    31  H    4.058087   4.334843   4.980841   3.575344   5.841449
    32  C    3.347042   3.638168   4.976345   2.894645   4.182348
    33  O    2.311499   3.466210   4.467371   3.438548   4.470714
    34  C    4.341145   4.223340   5.449956   3.073514   4.864378
    35  H    3.374130   3.816507   5.231446   3.375175   3.924716
    36  H    5.182573   4.879656   6.107452   3.671227   5.267950
    37  N    4.505161   4.372246   5.362855   3.146702   5.445272
    38  C    5.732543   5.361501   6.150810   4.014718   6.498288
    39  H    6.560683   6.245130   7.131636   4.881534   7.221199
    40  H    6.026644   5.753855   6.377362   4.510565   7.092782
    41  H    5.824247   5.153871   5.826830   3.744220   6.237481
                   26         27         28         29         30
    26  H    0.000000
    27  H    1.789432   0.000000
    28  H    1.786826   1.785243   0.000000
    29  C    4.998661   5.920969   5.807621   0.000000
    30  N    4.091846   5.057954   5.208386   1.334679   0.000000
    31  H    5.760904   6.448102   6.423303   1.071797   2.137694
    32  C    3.552139   4.924008   4.824883   2.196709   1.363546
    33  O    4.199726   4.790855   5.387492   2.373981   1.332030
    34  C    4.309853   5.762360   5.266735   2.185969   2.182854
    35  H    3.099264   4.569301   4.640960   3.207541   2.129751
    36  H    4.639180   6.235754   5.510799   3.202183   3.234964
    37  N    5.114148   6.305431   5.841233   1.334739   2.163882
    38  C    6.258113   7.417405   6.722263   2.476203   3.561490
    39  H    6.855905   8.169272   7.431705   3.231449   4.176704
    40  H    6.950020   7.942062   7.365120   2.603925   3.886817
    41  H    6.100023   7.208232   6.292816   3.105184   4.093859
                   31         32         33         34         35
    31  H    0.000000
    32  C    3.228430   0.000000
    33  O    2.735687   2.392469   0.000000
    34  C    3.225756   1.359700   3.472832   0.000000
    35  H    4.192914   1.069895   2.698415   2.220628   0.000000
    36  H    4.201470   2.206924   4.494015   1.071019   2.761753
    37  N    2.154026   2.198068   3.453251   1.361176   3.251904
    38  C    2.844153   3.591399   4.797471   2.487712   4.614010
    39  H    3.683273   3.982070   5.454797   2.750469   4.922192
    40  H    2.539238   4.253264   4.966822   3.353187   5.316191
    41  H    3.469123   4.007041   5.314157   2.866557   4.970804
                   36         37         38         39         40
    36  H    0.000000
    37  N    2.133509   0.000000
    38  C    2.775913   1.439698   0.000000
    39  H    2.726413   2.079029   1.090347   0.000000
    40  H    3.801642   2.074889   1.087995   1.780875   0.000000
    41  H    2.964567   2.078874   1.091492   1.778914   1.773655
                   41
    41  H    0.000000
 Stoichiometry    C13H20N2O5S
 Framework group  C1[X(C13H20N2O5S)]
 Deg. of freedom   117
 Full point group                 C1      NOp   1
 Largest Abelian subgroup         C1      NOp   1
 Largest concise Abelian subgroup C1      NOp   1
                         Standard orientation:                         
 ---------------------------------------------------------------------
 Center     Atomic      Atomic             Coordinates (Angstroms)
 Number     Number       Type             X           Y           Z
 ---------------------------------------------------------------------
      1          6           0        0.753402    0.405424   -0.373224
      2          6           0        0.743733   -0.030258    0.993557
      3          6           0        1.866232   -0.445310    1.694240
      4          6           0        2.117616    0.624652   -1.004796
      5          1           0       -0.191630    0.034300    1.529517
      6          8           0        1.830634   -0.868805    2.876744
      7          6           0        3.228436   -0.323493    1.002329
      8          6           0        3.169551   -0.381893   -0.523052
      9          6           0        4.525574    0.018722   -1.114729
     10          1           0        5.304449   -0.646142   -0.749356
     11          1           0        4.498339   -0.042861   -2.199924
     12          1           0        4.784988    1.036054   -0.830830
     13          6           0        2.834159   -1.804237   -0.975159
     14          1           0        3.667425   -2.467267   -0.753687
     15          1           0        1.958690   -2.169696   -0.448388
     16          1           0        2.636327   -1.830486   -2.042994
     17          1           0        3.880163   -1.107216    1.395812
     18          1           0        2.001563    0.576080   -2.087636
     19          1           0        2.427196    1.634694   -0.731059
     20          1           0        3.647934    0.635814    1.324000
     21          8           0       -0.069625    1.535762   -0.649916
     22         16           0       -1.217092    2.047125    0.344623
     23          8           0       -0.656693    2.697904    1.493061
     24          8           0       -2.168904    0.996378    0.594276
     25          6           0       -1.931791    3.260795   -0.760827
     26          1           0       -2.314653    2.739109   -1.626712
     27          1           0       -1.139843    3.947555   -1.025423
     28          1           0       -2.723975    3.765607   -0.222608
     29          6           0       -1.352955   -1.871364    0.048184
     30          7           0       -1.070046   -1.109896   -1.010824
     31          1           0       -0.633448   -2.228324    0.757859
     32          6           0       -2.228471   -0.811774   -1.665371
     33          8           0        0.137625   -0.658709   -1.345885
     34          6           0       -3.230209   -1.422071   -0.977736
     35          1           0       -2.234127   -0.216892   -2.554617
     36          1           0       -4.285023   -1.435156   -1.162878
     37          7           0       -2.672756   -2.067390    0.083211
     38          6           0       -3.401111   -2.792048    1.091725
     39          1           0       -4.090723   -3.490876    0.617457
     40          1           0       -2.703360   -3.337725    1.723479
     41          1           0       -3.966520   -2.092693    1.710249
 ---------------------------------------------------------------------
 Rotational constants (GHZ):           0.3963613           0.2483724           0.2071188
 Standard basis: STO-3G (5D, 7F)
 There are   129 symmetry adapted cartesian basis functions of A   symmetry.
 There are   129 symmetry adapted basis functions of A   symmetry.
   129 basis functions,   387 primitive gaussians,   129 cartesian basis functions
    84 alpha electrons       84 beta electrons
       nuclear repulsion energy      2139.0570686255 Hartrees.



 Warning!  S  atom   22 may be hypervalent but has no d functions.



 NAtoms=   41 NActive=   41 NUniq=   41 SFac= 1.00D+00 NAtFMM=   60 NAOKFM=F Big=F
 Integral buffers will be    131072 words long.
 Raffenetti 1 integral format.
 Two-electron integral symmetry is turned on.
 External calculation of energy, first and second derivatives.
 Running external command "xtb-gaussian -P 4 R"
         input file       "/scratch/Gau-349434.EIn"
         output file      "/scratch/Gau-349434.EOu"
         message file     "/scratch/Gau-349434.EMs"
         fchk file        "/scratch/Gau-349434.EFC"
         mat. el file     "/scratch/Gau-349434.EUF"

 ExternalExternalExternalExternalExternalExternalExternalExternalExternalExternal
 Output from external command:
 "xtb-gaussian -P 4 R /scratch/Gau-349434.EIn /scratch/Gau-349434.EOu /scratch/Gau-349434.EMs /scratch/Gau-349434.EFC /scratch/Gau-349434.EUF"
 normal termination of xtb
  
 ------- xtb command was ---------
 ?> xtb ./Gau-349434.EIn -P 4 --hess --charge 0  >/dev/null 2>Gau-349434.EMs
 ---------------------------------
              Control returned to Gaussian.
 ~~~~~~~~~~~~~~~~~~~~~~~~~~~~~~~~~~~~~~~~~~~~~~~~~~~~~~~~~~~~~~~~~~~~~~~~~
 ExternalExternalExternalExternalExternalExternalExternalExternalExternalExternal

 Recovered energy= -67.4147852158     dipole=     -3.655269414520     -0.803146292438     -3.713981789510
 Energy=    -67.4147852     NIter=   0.
 Dipole moment=      -3.655269      -0.803146      -3.713982
 Full mass-weighted force constant matrix:
 Low frequencies ---  -22.1893   -0.0186   -0.0105    0.0059    0.0186    0.0195
 Low frequencies ---    0.0250   35.5674   45.1693
 ******    1 imaginary frequencies (negative Signs) ****** 
 Diagonal vibrational polarizability:
        0.0000000       0.0000000       0.0000000
 Harmonic frequencies (cm**-1), IR intensities (KM/Mole), Raman scattering
 activities (A**4/AMU), depolarization ratios for plane and unpolarized
 incident light, reduced masses (AMU), force constants (mDyne/A),
 and normal coordinates:
                      1                      2                      3
                      A                      A                      A
 Frequencies --    -22.1893                35.5674                45.1693
 Red. masses --      5.0372                 4.7541                 3.9162
 Frc consts  --      0.0015                 0.0035                 0.0047
 IR Inten    --      0.0000                 0.0000                 0.0000
  Atom  AN      X      Y      Z        X      Y      Z        X      Y      Z
     1   6    -0.06  -0.04  -0.09    -0.05  -0.13  -0.11    -0.02  -0.05  -0.05
     2   6    -0.10  -0.07  -0.06    -0.07  -0.14  -0.08    -0.01  -0.05  -0.03
     3   6    -0.12  -0.04  -0.02    -0.07   0.00  -0.02     0.02   0.12   0.01
     4   6    -0.01  -0.01   0.01    -0.03  -0.02  -0.02    -0.03  -0.06  -0.06
     5   1    -0.11  -0.03  -0.09    -0.09  -0.16  -0.11    -0.02  -0.08  -0.04
     6   8    -0.16  -0.04  -0.02    -0.08   0.03  -0.01     0.04   0.18   0.04
     7   6    -0.10  -0.06   0.02    -0.05   0.08   0.03     0.01   0.16   0.01
     8   6    -0.05  -0.04   0.02     0.02   0.05   0.03    -0.01  -0.00   0.01
     9   6    -0.02  -0.05   0.07     0.01   0.13   0.08    -0.02  -0.06  -0.06
    10   1    -0.04  -0.07   0.10     0.04   0.19   0.11    -0.01  -0.01  -0.00
    11   1     0.02  -0.04   0.07     0.06   0.12   0.07    -0.05  -0.17  -0.05
    12   1    -0.01  -0.06   0.09    -0.06   0.15   0.07    -0.02  -0.03  -0.17
    13   6    -0.06  -0.02  -0.02     0.12   0.03   0.03    -0.02  -0.05   0.17
    14   1    -0.07  -0.04  -0.02     0.15   0.08   0.07    -0.02  -0.03   0.23
    15   1    -0.07  -0.03  -0.04     0.12  -0.02  -0.01    -0.01   0.01   0.22
    16   1    -0.04   0.00  -0.02     0.17   0.01   0.02    -0.03  -0.16   0.17
    17   1    -0.13  -0.08   0.04    -0.02   0.12   0.06     0.07   0.24   0.08
    18   1     0.05   0.04  -0.00     0.04  -0.02  -0.03    -0.03  -0.14  -0.06
    19   1    -0.02  -0.03   0.07    -0.12  -0.00   0.01    -0.05  -0.03  -0.13
    20   1    -0.08  -0.08   0.05    -0.12   0.11   0.03    -0.05   0.22  -0.09
    21   8     0.03   0.07  -0.01    -0.08  -0.11  -0.07     0.00  -0.01  -0.01
    22  16     0.02   0.06  -0.02     0.01  -0.07   0.01     0.05   0.00   0.03
    23   8     0.00   0.03   0.00     0.11  -0.10  -0.02     0.09  -0.05   0.03
    24   8    -0.00   0.07  -0.07    -0.02  -0.02   0.06     0.01   0.03   0.01
    25   6     0.05   0.10  -0.00    -0.00  -0.02   0.06     0.07   0.07   0.08
    26   1     0.05   0.13  -0.02    -0.06   0.01   0.07     0.04   0.12   0.07
    27   1     0.07   0.09   0.02     0.01  -0.04   0.04     0.09   0.06   0.10
    28   1     0.06   0.10  -0.00     0.04  -0.01   0.11     0.09   0.07   0.11
    29   6     0.13  -0.03  -0.04     0.03  -0.04  -0.06    -0.04  -0.07  -0.06
    30   7     0.01   0.03  -0.03     0.03  -0.05  -0.07    -0.05   0.00  -0.01
    31   1     0.20  -0.03  -0.11     0.05  -0.13  -0.12    -0.03  -0.11  -0.09
    32   6    -0.05   0.02   0.08     0.01   0.08   0.02    -0.05   0.05   0.02
    33   8    -0.01   0.13  -0.08     0.05  -0.06  -0.07    -0.04   0.00  -0.01
    34   6     0.03  -0.04   0.13     0.00   0.17   0.08    -0.05   0.01  -0.01
    35   1    -0.14   0.06   0.10     0.00   0.10   0.03    -0.06   0.12   0.07
    36   1     0.02  -0.07   0.22    -0.01   0.28   0.16    -0.05   0.02   0.00
    37   7     0.14  -0.07   0.06     0.01   0.09   0.03    -0.04  -0.07  -0.06
    38   6     0.24  -0.14   0.08     0.01   0.17   0.09    -0.03  -0.18  -0.13
    39   1     0.32  -0.24   0.10    -0.13   0.28   0.14     0.10  -0.26  -0.19
    40   1     0.32  -0.05   0.08    -0.01   0.07   0.01    -0.01  -0.10  -0.08
    41   1     0.16  -0.20   0.08     0.17   0.24   0.15    -0.17  -0.26  -0.16
                      4                      5                      6
                      A                      A                      A
 Frequencies --     61.8000                69.8232                78.6293
 Red. masses --      3.9554                 2.8488                 1.3993
 Frc consts  --      0.0089                 0.0082                 0.0051
 IR Inten    --      0.0000                 0.0000                 0.0000
  Atom  AN      X      Y      Z        X      Y      Z        X      Y      Z
     1   6     0.00   0.02   0.04    -0.01   0.02  -0.00    -0.00  -0.01  -0.01
     2   6     0.00   0.04   0.02    -0.01   0.03   0.00     0.00  -0.01  -0.01
     3   6    -0.01  -0.06  -0.01    -0.01   0.02  -0.00     0.00   0.01  -0.00
     4   6    -0.02   0.01   0.00    -0.02   0.01  -0.01     0.00   0.00  -0.01
     5   1    -0.01   0.00   0.02    -0.01   0.04   0.00     0.00   0.01  -0.00
     6   8    -0.02  -0.14  -0.04    -0.01   0.01  -0.01     0.00   0.02   0.00
     7   6    -0.01  -0.01   0.01    -0.01   0.01  -0.01     0.00  -0.00  -0.01
     8   6     0.03   0.05   0.00    -0.01   0.02  -0.01    -0.00  -0.00  -0.01
     9   6     0.02   0.16   0.06    -0.01   0.03  -0.01    -0.00  -0.00  -0.01
    10   1     0.05   0.18   0.03    -0.01   0.03  -0.01    -0.00  -0.00  -0.01
    11   1     0.05   0.24   0.05    -0.01   0.04  -0.01    -0.00  -0.00  -0.01
    12   1    -0.04   0.16   0.13    -0.02   0.03   0.00    -0.00  -0.00  -0.01
    13   6     0.12   0.06  -0.07     0.00   0.01  -0.01    -0.00  -0.00  -0.01
    14   1     0.13   0.08  -0.02     0.01   0.02  -0.01     0.00   0.00  -0.02
    15   1     0.09   0.01  -0.17     0.00   0.01  -0.02     0.00  -0.01  -0.00
    16   1     0.22   0.08  -0.09     0.01   0.02  -0.01    -0.01   0.00  -0.01
    17   1     0.01  -0.01  -0.02    -0.01   0.01  -0.01    -0.00  -0.01  -0.01
    18   1    -0.04  -0.03   0.01    -0.02  -0.00  -0.01     0.01   0.01  -0.01
    19   1    -0.04   0.03  -0.04    -0.02   0.01  -0.03    -0.00  -0.00   0.01
    20   1    -0.04  -0.01   0.05    -0.01   0.01  -0.01     0.01  -0.01  -0.01
    21   8    -0.03  -0.05  -0.05    -0.02  -0.00  -0.02    -0.00  -0.00   0.00
    22  16     0.03   0.06  -0.03     0.01   0.01   0.00    -0.01  -0.02  -0.00
    23   8     0.11   0.06  -0.07     0.03  -0.11   0.06    -0.03  -0.07   0.04
    24   8    -0.03   0.12   0.03    -0.07   0.06  -0.10    -0.03  -0.02  -0.06
    25   6     0.09   0.07  -0.05     0.13   0.16   0.09     0.03   0.03   0.04
    26   1     0.09   0.07  -0.06     0.15   0.28   0.01     0.05   0.08   0.00
    27   1     0.12   0.04  -0.04     0.19   0.14   0.20     0.05   0.03   0.09
    28   1     0.09   0.10  -0.08     0.13   0.16   0.10     0.03   0.02   0.04
    29   6    -0.06  -0.07   0.04    -0.01   0.01   0.05     0.00   0.04   0.03
    30   7    -0.04  -0.06   0.05     0.00  -0.04   0.01     0.01  -0.00  -0.00
    31   1    -0.06  -0.12   0.02    -0.03   0.08   0.10     0.00   0.07   0.05
    32   6    -0.03  -0.01   0.06     0.02  -0.14  -0.06     0.02  -0.03  -0.02
    33   8    -0.04  -0.11   0.04    -0.01  -0.03   0.01     0.01   0.00  -0.00
    34   6    -0.05  -0.01   0.05     0.01  -0.14  -0.06     0.01   0.00  -0.00
    35   1    -0.02   0.01   0.08     0.03  -0.20  -0.10     0.02  -0.06  -0.04
    36   1    -0.05   0.01   0.04     0.02  -0.20  -0.11     0.01  -0.00  -0.01
    37   7    -0.06  -0.05   0.03    -0.00  -0.05   0.00     0.00   0.05   0.03
    38   6    -0.07  -0.14  -0.04    -0.02   0.05   0.06    -0.01   0.05   0.02
    39   1     0.18  -0.35  -0.10    -0.31   0.32   0.11     0.38  -0.34   0.03
    40   1    -0.06   0.08   0.13    -0.05  -0.23  -0.14     0.02   0.48   0.36
    41   1    -0.35  -0.22  -0.21     0.31   0.15   0.26    -0.44   0.01  -0.33
                      7                      8                      9
                      A                      A                      A
 Frequencies --     92.5081               106.9902               121.3223
 Red. masses --      5.2037                 3.9595                 4.1631
 Frc consts  --      0.0262                 0.0267                 0.0361
 IR Inten    --      0.0000                 0.0000                 0.0000
  Atom  AN      X      Y      Z        X      Y      Z        X      Y      Z
     1   6    -0.03   0.04  -0.01     0.01   0.02  -0.03    -0.04  -0.11  -0.05
     2   6    -0.05   0.08  -0.01    -0.00  -0.00  -0.05    -0.03  -0.11  -0.01
     3   6    -0.07   0.03  -0.00    -0.02  -0.03  -0.03    -0.02   0.05   0.03
     4   6    -0.01   0.06   0.03     0.01  -0.07  -0.08    -0.01  -0.04   0.01
     5   1    -0.04   0.08  -0.01    -0.00  -0.00  -0.05    -0.01   0.00   0.01
     6   8    -0.09   0.04   0.00    -0.05  -0.09  -0.05     0.01   0.26   0.12
     7   6    -0.06  -0.03   0.01    -0.01   0.08   0.02    -0.02  -0.17  -0.02
     8   6    -0.06  -0.01   0.00     0.04   0.01   0.03     0.01  -0.04  -0.03
     9   6    -0.05  -0.07   0.00     0.05   0.05   0.07     0.01   0.09   0.07
    10   1    -0.07  -0.09   0.01     0.05   0.07   0.10     0.03   0.09   0.03
    11   1    -0.05  -0.08   0.00     0.09   0.04   0.07     0.07   0.21   0.06
    12   1    -0.01  -0.07  -0.01     0.01   0.06   0.07    -0.05   0.07   0.19
    13   6    -0.12   0.01  -0.01     0.12  -0.02   0.09     0.08   0.00  -0.21
    14   1    -0.10  -0.00  -0.12     0.05  -0.02   0.33     0.07  -0.01  -0.20
    15   1    -0.07  -0.00   0.08    -0.01   0.05  -0.08     0.03  -0.07  -0.35
    16   1    -0.25   0.05   0.01     0.36  -0.12   0.04     0.20   0.12  -0.24
    17   1    -0.10  -0.07  -0.01     0.06   0.17   0.08    -0.16  -0.31  -0.07
    18   1     0.01   0.12   0.02    -0.01  -0.21  -0.07     0.02   0.03   0.01
    19   1     0.01   0.03   0.09     0.00  -0.03  -0.22    -0.06  -0.05   0.09
    20   1    -0.01  -0.06   0.02    -0.13   0.15  -0.01     0.16  -0.27   0.05
    21   8    -0.10  -0.04  -0.08     0.09   0.09   0.01     0.04   0.01   0.04
    22  16     0.04   0.03   0.05     0.06   0.00   0.02     0.04   0.00   0.02
    23   8     0.22   0.08  -0.06     0.02   0.04   0.01     0.00   0.03   0.02
    24   8     0.06   0.06   0.22     0.14  -0.07   0.02     0.05  -0.01   0.02
    25   6    -0.12  -0.01   0.10    -0.08  -0.05   0.04     0.03  -0.04  -0.02
    26   1    -0.25  -0.06   0.19    -0.05  -0.09   0.05    -0.09  -0.09   0.06
    27   1    -0.17  -0.02  -0.05    -0.15   0.02   0.02     0.06  -0.13  -0.15
    28   1    -0.05   0.00   0.20    -0.11  -0.13   0.07     0.12   0.07   0.00
    29   6     0.04   0.01   0.00    -0.06   0.08   0.01    -0.04   0.02   0.02
    30   7     0.07  -0.06  -0.04    -0.09   0.04  -0.03    -0.04   0.02   0.01
    31   1     0.02   0.08   0.06    -0.04   0.18   0.05    -0.04   0.10   0.06
    32   6     0.09  -0.13  -0.11    -0.10  -0.10  -0.07    -0.04  -0.03  -0.02
    33   8     0.06  -0.05  -0.02    -0.11   0.07  -0.06    -0.03   0.06   0.01
    34   6     0.07  -0.11  -0.11    -0.07  -0.12  -0.05    -0.03  -0.06  -0.04
    35   1     0.11  -0.20  -0.16    -0.13  -0.16  -0.12    -0.04  -0.04  -0.03
    36   1     0.08  -0.15  -0.16    -0.07  -0.22  -0.07    -0.02  -0.10  -0.07
    37   7     0.04  -0.02  -0.04    -0.04  -0.00   0.01    -0.03  -0.02  -0.01
    38   6     0.01   0.04  -0.02    -0.00   0.05   0.07    -0.04  -0.02  -0.02
    39   1     0.16  -0.13   0.00     0.03  -0.03   0.14    -0.04  -0.02  -0.03
    40   1     0.01   0.23   0.15     0.03   0.14   0.12    -0.04  -0.03  -0.02
    41   1    -0.15   0.06  -0.20    -0.04   0.07   0.01    -0.03  -0.03  -0.01
                     10                     11                     12
                      A                      A                      A
 Frequencies --    132.3062               136.2386               154.6967
 Red. masses --      2.4177                 1.3515                 4.6907
 Frc consts  --      0.0249                 0.0148                 0.0661
 IR Inten    --      0.0000                 0.0000                 0.0000
  Atom  AN      X      Y      Z        X      Y      Z        X      Y      Z
     1   6     0.03   0.07  -0.01    -0.01  -0.03   0.01    -0.10  -0.18  -0.14
     2   6     0.01   0.12  -0.01    -0.01  -0.06   0.00    -0.06  -0.13  -0.02
     3   6    -0.02   0.04  -0.00     0.01  -0.01   0.01    -0.05  -0.02  -0.03
     4   6     0.03   0.02  -0.01    -0.01  -0.01   0.01    -0.05  -0.04  -0.03
     5   1     0.00   0.12  -0.02    -0.00  -0.05   0.01    -0.06  -0.11  -0.03
     6   8    -0.06   0.05  -0.00     0.03   0.01   0.01    -0.02  -0.10  -0.04
     7   6    -0.02  -0.05   0.00     0.00   0.00  -0.00    -0.04   0.06  -0.03
     8   6     0.00  -0.01  -0.00    -0.00  -0.00  -0.00    -0.03   0.01  -0.02
     9   6     0.03  -0.03   0.05    -0.02   0.01  -0.02    -0.06   0.06  -0.07
    10   1     0.00  -0.06   0.06    -0.00   0.02  -0.02    -0.00   0.15  -0.02
    11   1     0.07   0.01   0.05    -0.03   0.01  -0.02    -0.07  -0.04  -0.07
    12   1     0.05  -0.04   0.09    -0.02   0.01  -0.02    -0.14   0.10  -0.17
    13   6    -0.01   0.01  -0.05     0.00  -0.00   0.00     0.02  -0.02   0.02
    14   1    -0.03  -0.02  -0.04     0.01   0.00  -0.01     0.12   0.06  -0.13
    15   1    -0.04   0.02  -0.11     0.01  -0.01   0.02     0.15  -0.11   0.18
    16   1     0.04   0.04  -0.06    -0.02  -0.01   0.01    -0.17  -0.04   0.06
    17   1    -0.08  -0.11  -0.01     0.01   0.01  -0.00     0.00   0.10   0.00
    18   1     0.03   0.01  -0.01    -0.02   0.00   0.01     0.01   0.03  -0.04
    19   1     0.06   0.01  -0.02    -0.02  -0.01   0.02    -0.14  -0.04   0.07
    20   1     0.06  -0.09   0.03    -0.00   0.01  -0.01    -0.10   0.09  -0.05
    21   8     0.01   0.03  -0.09    -0.01  -0.02   0.04     0.03   0.04  -0.01
    22  16     0.02  -0.04  -0.03    -0.00   0.02   0.02     0.03   0.02  -0.02
    23   8     0.05  -0.08  -0.02    -0.01   0.05   0.01    -0.01   0.05  -0.02
    24   8     0.05  -0.07  -0.05    -0.02   0.04   0.05     0.07  -0.02  -0.04
    25   6    -0.09   0.01   0.09     0.04  -0.01  -0.04    -0.05   0.01   0.02
    26   1     0.27   0.10  -0.13     0.55   0.01  -0.28     0.05   0.03  -0.04
    27   1    -0.25   0.33   0.43    -0.08   0.29   0.39    -0.12   0.12   0.10
    28   1    -0.37  -0.37   0.03    -0.34  -0.36  -0.27    -0.13  -0.13   0.02
    29   6    -0.02   0.01   0.03     0.01  -0.01  -0.03     0.01   0.06   0.17
    30   7    -0.00   0.01   0.04    -0.00  -0.01  -0.03     0.06   0.03   0.15
    31   1    -0.02  -0.02   0.03     0.01  -0.00  -0.03    -0.04   0.13   0.26
    32   6    -0.00   0.04   0.06    -0.01  -0.02  -0.03     0.12  -0.00   0.04
    33   8    -0.00  -0.03   0.03    -0.00   0.00  -0.02     0.11   0.11   0.16
    34   6    -0.01   0.04   0.04    -0.00  -0.02  -0.02     0.08  -0.01  -0.04
    35   1     0.00   0.06   0.07    -0.01  -0.03  -0.03     0.20  -0.03   0.03
    36   1    -0.01   0.06   0.04    -0.00  -0.02  -0.01     0.10  -0.05  -0.14
    37   7    -0.02   0.01   0.03     0.01  -0.01  -0.01     0.00   0.03   0.04
    38   6    -0.02  -0.05  -0.02     0.01   0.03   0.01    -0.11  -0.03  -0.08
    39   1    -0.05   0.01  -0.08     0.02  -0.00   0.05    -0.13   0.08  -0.22
    40   1    -0.03  -0.13  -0.08     0.02   0.07   0.04    -0.19  -0.16  -0.11
    41   1     0.00  -0.10   0.04     0.00   0.05  -0.02    -0.10  -0.07  -0.03
                     13                     14                     15
                      A                      A                      A
 Frequencies --    185.0671               197.7587               206.7568
 Red. masses --      2.2483                 3.5739                 1.3273
 Frc consts  --      0.0454                 0.0823                 0.0334
 IR Inten    --      0.0000                 0.0000                 0.0000
  Atom  AN      X      Y      Z        X      Y      Z        X      Y      Z
     1   6    -0.00   0.00  -0.02     0.01  -0.00  -0.04    -0.01  -0.00   0.01
     2   6     0.01   0.03  -0.01     0.01   0.02  -0.03    -0.02  -0.01   0.01
     3   6    -0.00   0.00  -0.02    -0.01   0.01  -0.01    -0.01   0.00   0.01
     4   6    -0.00  -0.08  -0.07     0.01   0.02  -0.02    -0.02   0.03   0.02
     5   1     0.01   0.07  -0.00     0.01   0.06  -0.03    -0.02  -0.03   0.00
     6   8     0.00   0.02  -0.01    -0.03  -0.01  -0.02    -0.01  -0.00   0.01
     7   6    -0.01  -0.03  -0.03    -0.01   0.03  -0.00    -0.02   0.03   0.00
     8   6     0.01  -0.06  -0.03     0.00   0.02  -0.00    -0.03   0.02   0.00
     9   6     0.02  -0.05  -0.00     0.03  -0.03   0.02    -0.04   0.01  -0.04
    10   1     0.00  -0.10  -0.05    -0.02  -0.10  -0.02    -0.10  -0.25  -0.41
    11   1     0.02   0.04  -0.01     0.03   0.03   0.02    -0.22   0.43  -0.06
    12   1     0.05  -0.08   0.08     0.09  -0.06   0.08     0.16  -0.14   0.31
    13   6     0.11  -0.10  -0.00    -0.02   0.02   0.01    -0.06   0.03   0.01
    14   1    -0.01  -0.11   0.43    -0.11  -0.03   0.17    -0.20  -0.05   0.28
    15   1    -0.13   0.01  -0.34    -0.14   0.10  -0.13    -0.24   0.16  -0.21
    16   1     0.58  -0.21  -0.09     0.15  -0.01  -0.03     0.24  -0.01  -0.05
    17   1    -0.01  -0.01  -0.00     0.01   0.04   0.01     0.01   0.06   0.01
    18   1    -0.04  -0.18  -0.07     0.03   0.02  -0.03    -0.02   0.05   0.02
    19   1     0.04  -0.07  -0.18     0.00   0.02  -0.01    -0.02   0.02   0.04
    20   1    -0.01  -0.02  -0.06    -0.03   0.04  -0.01    -0.05   0.05  -0.01
    21   8    -0.04  -0.00   0.02    -0.07  -0.08  -0.02     0.02   0.01  -0.00
    22  16    -0.05   0.04   0.02    -0.02  -0.06   0.03     0.02  -0.01  -0.00
    23   8    -0.06   0.05   0.02     0.05  -0.07   0.01     0.02  -0.01   0.00
    24   8    -0.08   0.06   0.04    -0.09   0.02   0.09     0.04  -0.03  -0.02
    25   6    -0.07   0.05   0.05     0.12  -0.10  -0.09     0.04  -0.02  -0.03
    26   1    -0.10   0.08   0.05     0.20  -0.16  -0.09     0.06  -0.04  -0.02
    27   1    -0.09   0.08   0.06     0.18  -0.16  -0.07     0.05  -0.04  -0.02
    28   1    -0.07   0.02   0.10     0.07  -0.01  -0.24     0.03  -0.00  -0.06
    29   6     0.03  -0.01   0.01    -0.02   0.23   0.11     0.01  -0.04  -0.00
    30   7     0.04  -0.02   0.01    -0.02   0.11   0.03     0.01  -0.02   0.01
    31   1     0.02  -0.01   0.02    -0.02   0.33   0.16     0.00  -0.06  -0.01
    32   6     0.06   0.01  -0.00    -0.01  -0.01  -0.04     0.02   0.00   0.02
    33   8     0.04  -0.01   0.02    -0.00   0.01  -0.03     0.01   0.01   0.02
    34   6     0.04   0.02  -0.01    -0.00  -0.00  -0.02     0.01   0.00   0.00
    35   1     0.08   0.01   0.00    -0.01  -0.11  -0.11     0.02   0.02   0.03
    36   1     0.05   0.04  -0.01     0.01  -0.10  -0.07     0.01   0.02   0.00
    37   7     0.03   0.01  -0.00     0.00   0.13   0.06     0.01  -0.02  -0.01
    38   6     0.01   0.00  -0.03     0.08  -0.11  -0.06    -0.02   0.02   0.00
    39   1     0.00   0.02  -0.05     0.09  -0.03  -0.19    -0.03   0.02   0.02
    40   1    -0.01  -0.02  -0.03     0.13  -0.23  -0.22    -0.05   0.03   0.04
    41   1     0.01  -0.01  -0.02     0.07  -0.29   0.13    -0.02   0.05  -0.03
                     16                     17                     18
                      A                      A                      A
 Frequencies --    215.8849               232.4219               243.4988
 Red. masses --      3.2774                 2.2042                 1.5656
 Frc consts  --      0.0900                 0.0702                 0.0547
 IR Inten    --      0.0000                 0.0000                 0.0000
  Atom  AN      X      Y      Z        X      Y      Z        X      Y      Z
     1   6     0.01   0.07  -0.04    -0.00  -0.05  -0.04     0.02  -0.01  -0.06
     2   6    -0.02   0.10  -0.04     0.01  -0.10  -0.03     0.02  -0.03  -0.06
     3   6    -0.07   0.04  -0.04     0.04  -0.01  -0.01     0.01   0.01  -0.04
     4   6    -0.00   0.02  -0.11     0.03   0.07   0.03     0.04  -0.00  -0.05
     5   1    -0.04   0.10  -0.08     0.00  -0.13  -0.04     0.01  -0.02  -0.07
     6   8    -0.11   0.03  -0.05     0.07  -0.02  -0.01    -0.01   0.01  -0.03
     7   6    -0.07   0.05  -0.04     0.02   0.05  -0.01     0.02   0.03  -0.01
     8   6    -0.03   0.02  -0.05     0.02   0.04   0.00     0.04   0.00  -0.00
     9   6     0.03  -0.04   0.04     0.10  -0.10   0.09     0.09  -0.04   0.08
    10   1     0.02   0.12   0.34     0.02  -0.04   0.36    -0.03  -0.32  -0.18
    11   1     0.20  -0.34   0.05     0.27  -0.35   0.10     0.05   0.35   0.05
    12   1    -0.09   0.06  -0.21     0.09  -0.04  -0.10     0.30  -0.20   0.43
    13   6    -0.03   0.02  -0.06    -0.08   0.09  -0.05    -0.00   0.01   0.00
    14   1    -0.04   0.01  -0.03    -0.25  -0.04   0.18     0.10   0.04  -0.30
    15   1    -0.05   0.03  -0.10    -0.28   0.24  -0.29     0.18  -0.07   0.25
    16   1     0.02   0.03  -0.07     0.21   0.11  -0.11    -0.34   0.07   0.06
    17   1    -0.05   0.07  -0.02     0.06   0.08   0.00     0.03   0.04   0.01
    18   1    -0.04  -0.07  -0.10     0.08   0.18   0.02     0.06  -0.04  -0.05
    19   1     0.02   0.03  -0.20    -0.03   0.05   0.15     0.02   0.01  -0.07
    20   1    -0.09   0.06  -0.06    -0.01   0.08  -0.02    -0.01   0.04  -0.01
    21   8     0.03   0.05   0.03    -0.02  -0.02   0.00    -0.00  -0.00   0.01
    22  16     0.01  -0.01   0.08    -0.01   0.00  -0.02    -0.02   0.01   0.02
    23   8    -0.07   0.01   0.10     0.02  -0.00  -0.03    -0.04   0.03   0.02
    24   8     0.05  -0.05   0.06    -0.04   0.03  -0.00    -0.03   0.03   0.02
    25   6     0.15  -0.08  -0.08    -0.04   0.01   0.01    -0.01   0.01   0.01
    26   1     0.23  -0.16  -0.07    -0.06   0.03   0.01    -0.02   0.01   0.01
    27   1     0.23  -0.18  -0.07    -0.07   0.04   0.01    -0.02   0.01   0.01
    28   1     0.12   0.05  -0.25    -0.04  -0.02   0.05    -0.01   0.00   0.02
    29   6     0.02  -0.09   0.01    -0.01  -0.03   0.01    -0.00  -0.01   0.02
    30   7     0.04  -0.06   0.03    -0.01   0.02   0.04    -0.00  -0.01   0.01
    31   1     0.01  -0.15  -0.01    -0.01  -0.03   0.02    -0.01  -0.02   0.02
    32   6     0.05  -0.00   0.04    -0.01   0.01   0.03    -0.00  -0.02   0.01
    33   8     0.02  -0.02   0.01    -0.01   0.04   0.01    -0.01  -0.00  -0.02
    34   6     0.03   0.01   0.03    -0.01  -0.04  -0.01    -0.00  -0.01   0.01
    35   1     0.07   0.03   0.07    -0.01   0.03   0.05    -0.00  -0.02   0.01
    36   1     0.03   0.06   0.03    -0.00  -0.06  -0.02    -0.00  -0.01   0.01
    37   7     0.01  -0.05  -0.00    -0.01  -0.06  -0.01    -0.01  -0.01   0.02
    38   6    -0.08   0.03  -0.01    -0.05   0.02   0.02    -0.05  -0.00  -0.00
    39   1    -0.10   0.05  -0.02    -0.06   0.01   0.04    -0.05   0.02  -0.03
    40   1    -0.16   0.02   0.06    -0.09   0.04   0.07    -0.08  -0.02   0.01
    41   1    -0.08   0.09  -0.08    -0.05   0.08  -0.05    -0.05   0.01  -0.02
                     19                     20                     21
                      A                      A                      A
 Frequencies --    257.9358               287.0746               291.0242
 Red. masses --      4.5135                 3.0728                 3.8786
 Frc consts  --      0.1769                 0.1492                 0.1935
 IR Inten    --      0.0000                 0.0000                 0.0000
  Atom  AN      X      Y      Z        X      Y      Z        X      Y      Z
     1   6     0.00  -0.01   0.03    -0.03  -0.03   0.05     0.01   0.03   0.06
     2   6    -0.02  -0.09  -0.01    -0.03   0.04   0.09    -0.03  -0.02   0.03
     3   6     0.01  -0.03   0.00    -0.01   0.01   0.05    -0.01  -0.01   0.03
     4   6    -0.01   0.03   0.02    -0.09  -0.07  -0.10    -0.03  -0.03  -0.04
     5   1    -0.01  -0.07   0.00    -0.03   0.04   0.08    -0.04   0.01   0.02
     6   8     0.03   0.02   0.01     0.13  -0.04   0.03     0.05  -0.00   0.03
     7   6    -0.01   0.04  -0.00    -0.09   0.09  -0.05    -0.05   0.05  -0.02
     8   6    -0.02   0.03   0.00    -0.08  -0.02  -0.04    -0.04  -0.01  -0.02
     9   6     0.00  -0.01   0.02    -0.01  -0.01   0.16    -0.02   0.01   0.04
    10   1    -0.02   0.01   0.10    -0.08  -0.07   0.21    -0.03   0.01   0.06
    11   1     0.05  -0.08   0.03     0.16   0.11   0.15     0.03   0.03   0.04
    12   1    -0.00   0.01  -0.03    -0.01  -0.05   0.31    -0.04   0.00   0.08
    13   6    -0.08   0.06  -0.03    -0.06  -0.02  -0.09    -0.03  -0.01  -0.04
    14   1    -0.15  -0.01   0.06    -0.03  -0.01  -0.21    -0.01  -0.00  -0.10
    15   1    -0.16   0.13  -0.12    -0.01  -0.08  -0.04     0.00  -0.04  -0.02
    16   1     0.03   0.08  -0.05    -0.15   0.06  -0.07    -0.07   0.03  -0.04
    17   1     0.03   0.08   0.00     0.04   0.22  -0.00     0.02   0.12   0.01
    18   1    -0.02   0.06   0.02    -0.21  -0.24  -0.08    -0.11  -0.13  -0.03
    19   1    -0.03   0.03   0.04    -0.07  -0.03  -0.29     0.00  -0.01  -0.16
    20   1    -0.06   0.06  -0.01    -0.20   0.18  -0.16    -0.13   0.10  -0.08
    21   8     0.05   0.00   0.04    -0.01  -0.03  -0.01     0.08   0.06   0.06
    22  16     0.02   0.03  -0.00     0.00  -0.02  -0.02     0.05   0.05   0.02
    23   8    -0.10   0.11   0.01    -0.00   0.03  -0.04     0.13  -0.15   0.10
    24   8     0.11  -0.06  -0.04     0.05  -0.06   0.00    -0.10   0.16  -0.13
    25   6    -0.00   0.08   0.06     0.03   0.03   0.02    -0.13  -0.14  -0.07
    26   1    -0.06   0.17   0.03     0.02   0.11  -0.03    -0.10  -0.47   0.11
    27   1     0.01   0.08   0.10     0.08   0.01   0.08    -0.35   0.01  -0.35
    28   1     0.04   0.06   0.15     0.06   0.05   0.04    -0.23  -0.24  -0.12
    29   6    -0.01   0.01   0.03    -0.02   0.02  -0.03     0.02  -0.02  -0.00
    30   7     0.03  -0.18  -0.10    -0.00   0.03  -0.00     0.03  -0.06  -0.03
    31   1    -0.02   0.00   0.03    -0.03   0.04  -0.01     0.02  -0.04  -0.02
    32   6     0.02  -0.16  -0.10     0.02   0.05  -0.03     0.02  -0.05  -0.02
    33   8     0.00  -0.11  -0.09     0.03  -0.02   0.09    -0.01   0.02  -0.01
    34   6    -0.02   0.10   0.09     0.00   0.03  -0.06     0.02   0.03   0.03
    35   1     0.04  -0.30  -0.18     0.03   0.06  -0.02     0.03  -0.08  -0.04
    36   1    -0.03   0.20   0.15     0.00   0.02  -0.08     0.01   0.07   0.06
    37   7    -0.03   0.20   0.14    -0.01   0.01  -0.06     0.01   0.04   0.04
    38   6    -0.02  -0.10  -0.06     0.12   0.01   0.03    -0.02  -0.01  -0.02
    39   1     0.02   0.01  -0.28     0.12  -0.07   0.14    -0.01   0.03  -0.09
    40   1    -0.01  -0.27  -0.21     0.23   0.09  -0.02    -0.05  -0.06  -0.04
    41   1    -0.06  -0.32   0.14     0.14  -0.01   0.06    -0.03  -0.04   0.00
                     22                     23                     24
                      A                      A                      A
 Frequencies --    320.2308               334.2894               349.8011
 Red. masses --      2.5733                 3.3387                 3.6048
 Frc consts  --      0.1555                 0.2198                 0.2599
 IR Inten    --      0.0000                 0.0000                 0.0000
  Atom  AN      X      Y      Z        X      Y      Z        X      Y      Z
     1   6    -0.01  -0.01   0.03     0.01  -0.07  -0.10    -0.13  -0.01  -0.06
     2   6    -0.06  -0.00   0.02     0.06  -0.01  -0.06    -0.05   0.08   0.02
     3   6    -0.06   0.03   0.02     0.02  -0.00  -0.03     0.01   0.07  -0.09
     4   6     0.03   0.03   0.09     0.02   0.00  -0.06    -0.03   0.06   0.12
     5   1    -0.08  -0.05  -0.00     0.04  -0.02  -0.08    -0.02   0.02   0.08
     6   8    -0.08   0.00   0.01    -0.07   0.01  -0.03     0.14  -0.01  -0.11
     7   6    -0.03   0.11   0.02     0.05  -0.07   0.01     0.01  -0.04  -0.06
     8   6     0.04  -0.00   0.00     0.03   0.05   0.00    -0.02  -0.03  -0.02
     9   6     0.04  -0.14  -0.11     0.02   0.06  -0.00     0.03  -0.02   0.09
    10   1    -0.01  -0.24  -0.18     0.04   0.10   0.01    -0.04  -0.07   0.14
    11   1    -0.09  -0.18  -0.11     0.03   0.05  -0.00     0.15   0.05   0.09
    12   1     0.22  -0.17  -0.18    -0.03   0.08  -0.02     0.03  -0.05   0.20
    13   6     0.14   0.01  -0.11    -0.10   0.06   0.07     0.07  -0.09   0.08
    14   1     0.22   0.08  -0.22    -0.20  -0.04   0.17     0.12   0.01   0.18
    15   1     0.19  -0.16  -0.15    -0.17   0.22   0.07     0.09  -0.10   0.12
    16   1     0.13   0.14  -0.12    -0.06  -0.01   0.07     0.09  -0.23   0.08
    17   1     0.05   0.24   0.13    -0.05  -0.21  -0.09    -0.10  -0.13  -0.05
    18   1     0.05   0.20   0.08     0.08  -0.04  -0.07     0.08   0.38   0.10
    19   1     0.02  -0.00   0.24    -0.06   0.03  -0.08    -0.03  -0.03   0.45
    20   1    -0.17   0.21  -0.08     0.19  -0.17   0.12     0.13  -0.10  -0.03
    21   8     0.01  -0.00   0.01     0.02  -0.02  -0.00    -0.08   0.07  -0.08
    22  16     0.01   0.01   0.01     0.04   0.03   0.03    -0.01   0.04   0.02
    23   8    -0.01   0.01   0.03    -0.06   0.02   0.08     0.02  -0.05   0.06
    24   8     0.01   0.01  -0.02    -0.01   0.06  -0.05     0.06  -0.03   0.00
    25   6    -0.01  -0.01   0.00    -0.03  -0.03   0.00     0.02  -0.01  -0.06
    26   1    -0.01  -0.04   0.02    -0.04  -0.13   0.06     0.10  -0.12  -0.03
    27   1    -0.04   0.01  -0.03    -0.12   0.03  -0.09     0.06  -0.06  -0.08
    28   1    -0.02  -0.03   0.00    -0.06  -0.09   0.02    -0.02   0.07  -0.20
    29   6    -0.06  -0.00  -0.01    -0.11  -0.02  -0.00    -0.03  -0.06  -0.04
    30   7    -0.02  -0.01   0.00    -0.01  -0.03   0.03    -0.01  -0.07  -0.05
    31   1    -0.08  -0.02  -0.00    -0.16  -0.05   0.04    -0.03  -0.03  -0.02
    32   6    -0.01   0.00  -0.02     0.03   0.02  -0.02    -0.02  -0.06  -0.05
    33   8     0.02  -0.05   0.06     0.06  -0.11   0.10     0.02   0.08   0.07
    34   6    -0.03   0.02  -0.04    -0.04   0.05  -0.09    -0.04   0.04   0.01
    35   1     0.01   0.00  -0.02     0.10   0.04  -0.01    -0.02  -0.07  -0.06
    36   1    -0.03   0.03  -0.07    -0.03   0.10  -0.16    -0.04   0.10   0.04
    37   7    -0.06   0.01  -0.03    -0.11   0.01  -0.06    -0.05   0.03   0.02
    38   6     0.07  -0.02   0.05     0.14  -0.03   0.08     0.01  -0.02   0.02
    39   1     0.07  -0.08   0.13     0.14  -0.16   0.27     0.02  -0.04   0.03
    40   1     0.18   0.05  -0.02     0.36   0.10  -0.04     0.06  -0.01  -0.02
    41   1     0.08  -0.05   0.10     0.17  -0.09   0.18     0.01  -0.06   0.07
                     25                     26                     27
                      A                      A                      A
 Frequencies --    391.1984               408.5188               418.9419
 Red. masses --      4.7102                 5.2979                 2.7789
 Frc consts  --      0.4247                 0.5209                 0.2874
 IR Inten    --      0.0000                 0.0000                 0.0000
  Atom  AN      X      Y      Z        X      Y      Z        X      Y      Z
     1   6    -0.05  -0.04  -0.05     0.07   0.14   0.09    -0.03   0.03   0.06
     2   6     0.07   0.05   0.05    -0.09  -0.14  -0.06    -0.07  -0.08   0.02
     3   6     0.04   0.05   0.08    -0.06  -0.08  -0.08    -0.05  -0.07   0.01
     4   6    -0.02  -0.07  -0.10     0.04   0.09   0.01    -0.08   0.06  -0.08
     5   1     0.06   0.03   0.04    -0.08  -0.09  -0.06    -0.06  -0.03   0.04
     6   8    -0.06  -0.06   0.05     0.00   0.08  -0.03     0.04   0.01   0.04
     7   6     0.08  -0.02   0.09    -0.08  -0.03  -0.10    -0.06  -0.09  -0.03
     8   6     0.05   0.06   0.06    -0.01  -0.01  -0.09    -0.00   0.15  -0.04
     9   6     0.04  -0.05  -0.06     0.03   0.04   0.01     0.07  -0.09  -0.04
    10   1     0.01  -0.10  -0.10     0.02   0.06   0.06    -0.08  -0.25  -0.00
    11   1    -0.07  -0.12  -0.05     0.13   0.09   0.01     0.06  -0.16  -0.04
    12   1     0.17  -0.06  -0.15    -0.04   0.04   0.08     0.31  -0.13  -0.10
    13   6     0.01   0.11  -0.03     0.00  -0.07   0.07     0.09   0.10   0.09
    14   1    -0.02   0.04  -0.12     0.03  -0.00   0.16     0.16   0.21   0.13
    15   1    -0.00   0.09  -0.06     0.03   0.01   0.17     0.15   0.07   0.17
    16   1    -0.00   0.22  -0.04    -0.04  -0.25   0.08     0.05  -0.05   0.10
    17   1    -0.01  -0.14  -0.00    -0.05   0.01  -0.09    -0.18  -0.28  -0.20
    18   1    -0.03  -0.37  -0.08    -0.05   0.21   0.02    -0.21  -0.16  -0.06
    19   1    -0.11   0.02  -0.37     0.14   0.04   0.09    -0.11   0.12  -0.31
    20   1     0.21  -0.10   0.15    -0.15  -0.01  -0.07     0.09  -0.23   0.21
    21   8     0.01   0.09   0.03     0.17   0.14   0.13    -0.06  -0.02   0.01
    22  16    -0.06  -0.03  -0.02    -0.07  -0.06  -0.03    -0.02   0.05   0.01
    23   8     0.09  -0.05  -0.09     0.10  -0.03  -0.14     0.03  -0.03   0.02
    24   8    -0.06  -0.02   0.08    -0.10  -0.01   0.09     0.08  -0.05  -0.04
    25   6     0.02   0.02  -0.02     0.01   0.02   0.01    -0.01   0.03  -0.04
    26   1     0.04   0.10  -0.08    -0.01   0.18  -0.07     0.02  -0.04  -0.02
    27   1     0.11  -0.05   0.08     0.11  -0.04   0.14    -0.01   0.01  -0.06
    28   1     0.03   0.09  -0.06     0.05   0.06   0.04    -0.04   0.06  -0.10
    29   6    -0.02  -0.12  -0.07    -0.07  -0.05   0.06     0.01   0.03   0.02
    30   7     0.01  -0.10  -0.06     0.05  -0.04   0.10     0.00   0.02   0.01
    31   1    -0.04  -0.07  -0.02    -0.17  -0.21   0.08     0.02   0.01   0.00
    32   6     0.00  -0.11  -0.08     0.11  -0.01   0.02     0.01   0.02   0.02
    33   8     0.01   0.23   0.12    -0.04   0.02  -0.02    -0.01  -0.04  -0.01
    34   6    -0.04   0.07   0.02     0.01   0.05  -0.07     0.02  -0.01  -0.01
    35   1     0.02  -0.14  -0.10     0.24  -0.02   0.02     0.01   0.03   0.02
    36   1    -0.04   0.17   0.06     0.02   0.12  -0.17     0.02  -0.04  -0.01
    37   7    -0.05   0.06   0.03    -0.09   0.02  -0.03     0.02  -0.00  -0.01
    38   6     0.01  -0.02   0.02     0.05  -0.03   0.05     0.01   0.01  -0.01
    39   1     0.02  -0.04   0.02     0.06  -0.11   0.16     0.00   0.01  -0.02
    40   1     0.07  -0.02  -0.04     0.20   0.06  -0.04    -0.01   0.01   0.00
    41   1     0.00  -0.08   0.08     0.07  -0.08   0.13     0.00   0.02  -0.02
                     28                     29                     30
                      A                      A                      A
 Frequencies --    434.4646               465.9882               477.1983
 Red. masses --      5.0073                 5.8738                 5.8920
 Frc consts  --      0.5569                 0.7515                 0.7905
 IR Inten    --      0.0000                 0.0000                 0.0000
  Atom  AN      X      Y      Z        X      Y      Z        X      Y      Z
     1   6     0.00   0.09   0.01    -0.01  -0.05   0.06     0.07   0.01  -0.12
     2   6     0.09  -0.14  -0.09    -0.18   0.00   0.08     0.09   0.01  -0.06
     3   6     0.09  -0.02   0.00    -0.11   0.00  -0.04    -0.01  -0.04   0.12
     4   6     0.00  -0.05   0.02     0.04  -0.13   0.06     0.01   0.15  -0.10
     5   1     0.10  -0.28  -0.05    -0.15   0.09   0.11     0.01   0.03  -0.19
     6   8    -0.04   0.02   0.01     0.06   0.02  -0.04     0.12  -0.06   0.13
     7   6     0.11   0.04   0.08    -0.05  -0.01  -0.01    -0.09  -0.02   0.03
     8   6    -0.02  -0.07   0.09     0.17  -0.02  -0.01    -0.16   0.07   0.03
     9   6    -0.09  -0.00   0.04     0.16   0.07  -0.09    -0.17  -0.07   0.04
    10   1    -0.01   0.07   0.01     0.23   0.14  -0.13    -0.23  -0.15   0.04
    11   1    -0.13  -0.00   0.04     0.10   0.06  -0.09    -0.21  -0.11   0.04
    12   1    -0.15   0.02   0.02     0.09   0.10  -0.11    -0.04  -0.09  -0.00
    13   6    -0.01  -0.03  -0.08    -0.08   0.04   0.01     0.09   0.02   0.02
    14   1    -0.02  -0.07  -0.17    -0.25  -0.18  -0.02     0.26   0.25   0.05
    15   1    -0.04  -0.12  -0.18    -0.15   0.30   0.08     0.16  -0.25  -0.04
    16   1     0.02   0.16  -0.09    -0.17   0.07   0.03     0.17  -0.03   0.00
    17   1     0.21   0.15   0.13    -0.12  -0.01   0.12    -0.07  -0.08  -0.12
    18   1     0.03  -0.19   0.02    -0.04  -0.21   0.07     0.13   0.23  -0.11
    19   1     0.08  -0.04  -0.11    -0.00  -0.09  -0.05     0.01   0.12   0.03
    20   1     0.01   0.12  -0.05    -0.10  -0.01   0.05    -0.01  -0.07   0.08
    21   8    -0.10   0.05  -0.06     0.11   0.04  -0.08     0.08   0.03  -0.13
    22  16    -0.09   0.12  -0.02     0.01   0.02  -0.09     0.09  -0.04  -0.09
    23   8     0.03  -0.16   0.08    -0.13  -0.18   0.08    -0.18  -0.08   0.06
    24   8     0.15  -0.07   0.08     0.04   0.07   0.26    -0.02   0.13   0.19
    25   6    -0.06   0.12  -0.13    -0.05   0.08  -0.07     0.00  -0.00   0.00
    26   1     0.05  -0.00  -0.11    -0.07   0.13  -0.09    -0.07   0.08  -0.01
    27   1     0.02   0.03  -0.14    -0.05   0.09  -0.06    -0.07   0.07  -0.01
    28   1    -0.11   0.23  -0.31    -0.03   0.05  -0.02     0.04  -0.10   0.15
    29   6    -0.03  -0.00   0.06     0.03   0.03  -0.03    -0.03  -0.03   0.01
    30   7     0.03  -0.02   0.08    -0.02   0.02  -0.05     0.01  -0.01   0.02
    31   1    -0.09  -0.10   0.08     0.08   0.09  -0.05    -0.07  -0.06   0.03
    32   6     0.08   0.02   0.04    -0.05   0.01  -0.02     0.02  -0.02   0.01
    33   8    -0.06  -0.02  -0.08     0.04  -0.07   0.07     0.00   0.04  -0.07
    34   6     0.03   0.02  -0.05    -0.00  -0.03   0.02    -0.02   0.01  -0.01
    35   1     0.19   0.03   0.04    -0.12  -0.01  -0.03     0.04  -0.03  -0.00
    36   1     0.04   0.04  -0.12    -0.01  -0.08   0.06    -0.01   0.04  -0.04
    37   7    -0.03   0.00  -0.03     0.04  -0.01   0.01    -0.04  -0.00  -0.00
    38   6     0.03  -0.00   0.02    -0.01   0.01  -0.02    -0.01  -0.02   0.03
    39   1     0.04  -0.05   0.08    -0.01   0.04  -0.06    -0.01  -0.04   0.06
    40   1     0.10   0.04  -0.02    -0.06  -0.01   0.01     0.03   0.00   0.00
    41   1     0.04  -0.02   0.05    -0.02   0.03  -0.05    -0.00  -0.03   0.04
                     31                     32                     33
                      A                      A                      A
 Frequencies --    483.7784               500.7736               525.2735
 Red. masses --      4.4850                 4.8979                 4.8173
 Frc consts  --      0.6184                 0.7237                 0.7831
 IR Inten    --      0.0000                 0.0000                 0.0000
  Atom  AN      X      Y      Z        X      Y      Z        X      Y      Z
     1   6     0.05  -0.02  -0.05     0.06  -0.02   0.03     0.05   0.05  -0.17
     2   6     0.14  -0.03  -0.01     0.03   0.06   0.07    -0.05   0.03  -0.08
     3   6     0.05  -0.10   0.06    -0.04  -0.14   0.09    -0.14  -0.09   0.05
     4   6     0.03   0.12  -0.08     0.07   0.03  -0.03     0.16  -0.01  -0.05
     5   1     0.13   0.02  -0.04    -0.00   0.09   0.00    -0.13   0.17  -0.24
     6   8    -0.13   0.01   0.11    -0.05   0.00   0.16     0.22  -0.03   0.10
     7   6    -0.00   0.01  -0.08    -0.07  -0.01  -0.08    -0.14  -0.03   0.09
     8   6    -0.06   0.00  -0.12     0.09  -0.04  -0.14     0.07  -0.05   0.09
     9   6     0.00   0.02   0.01     0.16   0.08  -0.07     0.00   0.03  -0.05
    10   1    -0.04   0.01   0.09     0.20   0.14  -0.05     0.15   0.13  -0.19
    11   1     0.15   0.07   0.01     0.23   0.13  -0.08    -0.21  -0.00  -0.05
    12   1    -0.04   0.01   0.10     0.03   0.09  -0.01    -0.07   0.08  -0.14
    13   6    -0.00  -0.07   0.01    -0.04  -0.07   0.01    -0.02   0.01  -0.01
    14   1     0.05   0.03   0.13    -0.11  -0.13   0.07    -0.09  -0.10  -0.08
    15   1     0.03  -0.05   0.08    -0.04   0.14   0.16    -0.06   0.05  -0.04
    16   1     0.01  -0.25   0.02    -0.14  -0.23   0.03    -0.03   0.14  -0.01
    17   1     0.21   0.16  -0.15     0.17   0.22  -0.02    -0.11   0.06   0.22
    18   1     0.06   0.35  -0.09     0.01   0.19  -0.03     0.34  -0.03  -0.07
    19   1     0.04   0.05   0.17     0.10  -0.02   0.11     0.17  -0.01  -0.03
    20   1    -0.15   0.11  -0.16    -0.34   0.14  -0.15    -0.29   0.03   0.12
    21   8     0.03   0.03   0.08    -0.16  -0.14  -0.07    -0.01   0.08  -0.06
    22  16    -0.06   0.04  -0.01     0.03   0.02  -0.01    -0.09   0.03   0.08
    23   8     0.05  -0.07  -0.00    -0.04   0.00   0.05     0.09   0.06  -0.01
    24   8     0.04  -0.04   0.04     0.06  -0.00  -0.03    -0.03  -0.07  -0.07
    25   6    -0.04   0.07  -0.06    -0.00   0.01  -0.01    -0.00  -0.00   0.01
    26   1    -0.01   0.06  -0.07    -0.01  -0.03   0.02     0.09  -0.07   0.01
    27   1    -0.00   0.03  -0.04    -0.05   0.04  -0.06     0.10  -0.11   0.04
    28   1    -0.05   0.11  -0.11    -0.01  -0.02   0.01    -0.03   0.12  -0.16
    29   6     0.02   0.02  -0.09    -0.03  -0.08  -0.00    -0.03   0.03  -0.00
    30   7    -0.04   0.05  -0.10     0.02  -0.02   0.06     0.01  -0.00  -0.04
    31   1     0.12   0.20  -0.10    -0.10  -0.13   0.05    -0.03   0.01  -0.02
    32   6    -0.12  -0.00  -0.05     0.06  -0.06  -0.00    -0.04   0.01   0.01
    33   8     0.14  -0.09   0.17    -0.08   0.21  -0.07     0.09  -0.05  -0.01
    34   6    -0.04  -0.05   0.06    -0.00   0.05  -0.01    -0.03  -0.01   0.01
    35   1    -0.30  -0.04  -0.07     0.15  -0.06  -0.00    -0.10   0.02   0.01
    36   1    -0.05  -0.11   0.13     0.00   0.12  -0.05    -0.03  -0.01  -0.01
    37   7     0.03  -0.01   0.04    -0.05   0.02  -0.00    -0.03  -0.03   0.01
    38   6    -0.04  -0.00  -0.00    -0.00  -0.02   0.03    -0.03  -0.03   0.04
    39   1    -0.04   0.04  -0.08     0.00  -0.05   0.06    -0.04  -0.03   0.05
    40   1    -0.11  -0.05   0.04     0.06   0.01  -0.02    -0.03  -0.02   0.04
    41   1    -0.05   0.02  -0.04     0.01  -0.05   0.06    -0.03  -0.02   0.04
                     34                     35                     36
                      A                      A                      A
 Frequencies --    546.1811               567.6856               578.0091
 Red. masses --      4.0759                 3.8583                 4.6993
 Frc consts  --      0.7164                 0.7326                 0.9250
 IR Inten    --      0.0000                 0.0000                 0.0000
  Atom  AN      X      Y      Z        X      Y      Z        X      Y      Z
     1   6     0.05   0.17   0.08     0.08  -0.05  -0.01    -0.06  -0.05  -0.04
     2   6    -0.04  -0.16  -0.06    -0.04  -0.00   0.01     0.04   0.09   0.02
     3   6     0.00  -0.02  -0.04    -0.03   0.31   0.15     0.01  -0.16  -0.07
     4   6     0.04   0.02  -0.00     0.06   0.03  -0.05    -0.04  -0.03   0.03
     5   1    -0.09  -0.44  -0.11    -0.16  -0.19  -0.19     0.10   0.23   0.11
     6   8     0.01   0.03  -0.02     0.01  -0.13  -0.00     0.01   0.06   0.01
     7   6     0.01  -0.01   0.01    -0.05   0.05  -0.01     0.01  -0.03   0.00
     8   6     0.00  -0.02   0.02     0.00  -0.02  -0.06    -0.00   0.02   0.03
     9   6    -0.02   0.01   0.01     0.02   0.02  -0.02    -0.01  -0.02   0.01
    10   1     0.02   0.04  -0.01     0.05   0.05  -0.02    -0.03  -0.04   0.01
    11   1    -0.04   0.01   0.01     0.05   0.07  -0.02    -0.03  -0.04   0.01
    12   1    -0.06   0.02  -0.00    -0.03   0.03   0.02     0.04  -0.02  -0.02
    13   6    -0.01  -0.02  -0.01    -0.01  -0.05  -0.02     0.01   0.04   0.01
    14   1    -0.00  -0.03  -0.03    -0.02  -0.05   0.02     0.01   0.04  -0.00
    15   1    -0.01  -0.03  -0.02    -0.01  -0.01   0.01     0.01   0.02  -0.00
    16   1    -0.00   0.01  -0.01    -0.01  -0.11  -0.01     0.01   0.07   0.01
    17   1    -0.01  -0.02   0.04    -0.39  -0.25  -0.04     0.19   0.13   0.02
    18   1    -0.07  -0.18   0.02     0.04   0.13  -0.05     0.03   0.00   0.02
    19   1     0.17   0.04  -0.23     0.07  -0.01   0.05    -0.11  -0.02   0.07
    20   1     0.02  -0.01   0.01     0.42  -0.16  -0.04    -0.24   0.08   0.03
    21   8    -0.08   0.01  -0.14     0.02  -0.07   0.10     0.03   0.02   0.01
    22  16     0.03  -0.02   0.01    -0.02   0.02   0.00    -0.00  -0.00   0.00
    23   8    -0.05   0.05   0.01     0.03  -0.02   0.00     0.01  -0.00  -0.00
    24   8    -0.02   0.03  -0.02     0.03  -0.03   0.00    -0.01   0.00   0.01
    25   6     0.04  -0.06   0.05    -0.03   0.05  -0.04    -0.00   0.00   0.00
    26   1     0.04  -0.07   0.05    -0.04   0.05  -0.04    -0.00   0.01  -0.00
    27   1     0.03  -0.05   0.03    -0.03   0.05  -0.04     0.00  -0.00   0.00
    28   1     0.03  -0.05   0.04    -0.03   0.04  -0.03    -0.00   0.00  -0.00
    29   6     0.03  -0.11  -0.13    -0.00  -0.07  -0.05     0.02  -0.17  -0.09
    30   7    -0.03   0.17   0.07     0.00   0.05   0.03     0.01  -0.06  -0.03
    31   1     0.09  -0.42  -0.35     0.00  -0.29  -0.16     0.02   0.00   0.00
    32   6    -0.02  -0.08  -0.07     0.01   0.03   0.03    -0.00   0.18   0.12
    33   8     0.02   0.02   0.16     0.00  -0.02  -0.07    -0.02  -0.01  -0.03
    34   6     0.01  -0.05   0.00     0.01  -0.09  -0.06     0.05  -0.23  -0.18
    35   1    -0.07  -0.17  -0.14     0.01   0.03   0.03     0.02   0.28   0.19
    36   1     0.01  -0.11   0.01     0.02  -0.15  -0.13     0.07  -0.41  -0.31
    37   7     0.01   0.11   0.09    -0.03   0.10   0.07    -0.03   0.24   0.15
    38   6    -0.00   0.01  -0.00    -0.01  -0.00   0.02     0.00   0.02   0.01
    39   1     0.03   0.04  -0.10     0.02   0.01  -0.04     0.07   0.04  -0.12
    40   1    -0.03  -0.03  -0.02     0.01  -0.02  -0.01     0.03  -0.04  -0.07
    41   1    -0.05  -0.05   0.03    -0.05  -0.07   0.07    -0.07  -0.14   0.13
                     37                     38                     39
                      A                      A                      A
 Frequencies --    590.9946               611.0005               617.7174
 Red. masses --      4.9719                 5.5112                 1.4148
 Frc consts  --      1.0231                 1.2122                 0.3181
 IR Inten    --      0.0000                 0.0000                 0.0000
  Atom  AN      X      Y      Z        X      Y      Z        X      Y      Z
     1   6    -0.01   0.11   0.08     0.12  -0.01   0.06     0.03   0.06   0.04
     2   6    -0.02  -0.11   0.02    -0.02   0.07   0.00    -0.03  -0.08  -0.02
     3   6     0.04   0.05   0.06    -0.04  -0.06  -0.17     0.00   0.04   0.01
     4   6    -0.01   0.02   0.00     0.08   0.02  -0.01     0.03   0.02  -0.01
     5   1    -0.05  -0.37  -0.01    -0.03   0.10  -0.03     0.02   0.13   0.04
     6   8    -0.05  -0.03   0.04     0.03   0.09  -0.15    -0.00  -0.01  -0.02
     7   6     0.05   0.01  -0.02    -0.05  -0.02   0.02    -0.00   0.01   0.00
     8   6     0.01  -0.02  -0.05    -0.03   0.00   0.09     0.00  -0.01   0.00
     9   6     0.04   0.02  -0.01    -0.11  -0.03   0.04    -0.01   0.00   0.00
    10   1     0.04   0.03   0.02    -0.06   0.00  -0.02     0.01   0.02  -0.01
    11   1     0.11   0.04  -0.01    -0.23  -0.06   0.05    -0.01   0.01   0.00
    12   1     0.00   0.02   0.03    -0.11  -0.01  -0.02    -0.02   0.01   0.00
    13   6    -0.01  -0.05  -0.02     0.01   0.04   0.01    -0.00  -0.01  -0.00
    14   1    -0.03  -0.05   0.01     0.04   0.07  -0.03     0.00  -0.01  -0.01
    15   1    -0.01   0.00   0.02     0.01  -0.07  -0.06    -0.00  -0.02  -0.01
    16   1    -0.03  -0.09  -0.01     0.06   0.14  -0.00     0.00  -0.01  -0.00
    17   1     0.01  -0.03  -0.05    -0.06   0.01   0.08    -0.05  -0.03   0.01
    18   1    -0.15  -0.09   0.02     0.04  -0.21   0.00    -0.02  -0.05   0.00
    19   1     0.08   0.03  -0.15     0.11   0.06  -0.22     0.08   0.03  -0.09
    20   1     0.16  -0.02  -0.07    -0.16   0.01   0.09     0.05  -0.01  -0.00
    21   8    -0.05   0.06  -0.10    -0.06  -0.20   0.21    -0.03  -0.02  -0.01
    22  16     0.02  -0.02  -0.00     0.03   0.01  -0.04     0.01   0.00  -0.01
    23   8    -0.03   0.02  -0.00    -0.00  -0.05   0.01    -0.01   0.00   0.00
    24   8    -0.02   0.03  -0.00     0.07  -0.01   0.00     0.01   0.01  -0.00
    25   6     0.03  -0.05   0.04    -0.03   0.07  -0.07     0.01  -0.01   0.01
    26   1     0.04  -0.06   0.04    -0.13   0.13  -0.06     0.00  -0.02   0.02
    27   1     0.04  -0.06   0.04    -0.14   0.18  -0.10    -0.01   0.00   0.00
    28   1     0.03  -0.04   0.02     0.00  -0.06   0.10     0.01  -0.03   0.03
    29   6    -0.07   0.23   0.10    -0.06   0.07  -0.03    -0.00  -0.07  -0.06
    30   7     0.09  -0.21  -0.21     0.07   0.04  -0.06     0.02  -0.03  -0.03
    31   1    -0.07  -0.41  -0.23    -0.06  -0.33  -0.23    -0.04   0.83   0.45
    32   6    -0.04   0.14   0.10    -0.00  -0.01  -0.01     0.00   0.03   0.02
    33   8     0.11   0.08   0.02     0.15   0.14   0.01     0.02   0.02   0.01
    34   6    -0.02  -0.11  -0.06    -0.01  -0.01   0.00    -0.00   0.01   0.00
    35   1    -0.16   0.25   0.18    -0.13  -0.03  -0.03    -0.03   0.08   0.05
    36   1    -0.01  -0.10  -0.10    -0.00   0.06  -0.07     0.00   0.01  -0.03
    37   7    -0.04  -0.03   0.02    -0.08  -0.04   0.04    -0.02  -0.01   0.01
    38   6    -0.05  -0.05   0.07    -0.09  -0.09   0.12    -0.02  -0.02   0.03
    39   1    -0.05  -0.04   0.06    -0.09  -0.09   0.12    -0.02  -0.03   0.04
    40   1    -0.05  -0.05   0.06    -0.07  -0.07   0.10    -0.01  -0.02   0.02
    41   1    -0.05  -0.05   0.07    -0.08  -0.09   0.12    -0.02  -0.02   0.03
                     40                     41                     42
                      A                      A                      A
 Frequencies --    658.9776               722.6256               738.4645
 Red. masses --      5.5243                 4.8178                 5.1433
 Frc consts  --      1.4134                 1.4823                 1.6525
 IR Inten    --      0.0000                 0.0000                 0.0000
  Atom  AN      X      Y      Z        X      Y      Z        X      Y      Z
     1   6    -0.08  -0.05   0.01     0.05  -0.02   0.04     0.04  -0.05   0.04
     2   6    -0.01   0.03   0.07    -0.01  -0.00   0.04    -0.04  -0.00   0.09
     3   6     0.04  -0.01   0.03     0.01  -0.01  -0.02     0.02  -0.00  -0.02
     4   6    -0.11  -0.06   0.05     0.02  -0.01   0.02     0.02  -0.02   0.03
     5   1     0.05   0.02   0.18    -0.07  -0.29  -0.03     0.01   0.05   0.15
     6   8    -0.04  -0.01   0.04    -0.01   0.01  -0.01    -0.03   0.01  -0.02
     7   6     0.07   0.00  -0.03     0.00   0.00  -0.03     0.03  -0.00  -0.05
     8   6    -0.01   0.02  -0.04    -0.02   0.02  -0.01    -0.02   0.02  -0.02
     9   6     0.03   0.00  -0.01    -0.03  -0.01   0.01    -0.04  -0.01   0.02
    10   1    -0.04  -0.05   0.06    -0.06  -0.02   0.03    -0.07  -0.03   0.05
    11   1     0.12   0.00  -0.01    -0.01  -0.01   0.01     0.00  -0.01   0.02
    12   1     0.07  -0.02   0.03    -0.02  -0.01   0.02    -0.03  -0.02   0.03
    13   6    -0.00   0.01  -0.00     0.00   0.03   0.01     0.00   0.03   0.01
    14   1    -0.01   0.02   0.03     0.03   0.06   0.02     0.03   0.07   0.03
    15   1     0.00   0.04   0.03     0.02  -0.00   0.01     0.02   0.01   0.01
    16   1    -0.01  -0.04   0.00     0.01  -0.01   0.01     0.02  -0.01   0.00
    17   1     0.13   0.03  -0.08    -0.01  -0.02  -0.07     0.06   0.01  -0.09
    18   1    -0.17  -0.07   0.06    -0.07  -0.05   0.03    -0.10  -0.15   0.05
    19   1    -0.14  -0.03   0.01     0.02   0.01  -0.04     0.02   0.02  -0.12
    20   1     0.04   0.02  -0.06     0.03  -0.01  -0.02     0.02   0.01  -0.06
    21   8     0.07   0.08  -0.10     0.11  -0.05  -0.15     0.09  -0.03  -0.09
    22  16    -0.03   0.00   0.02     0.06  -0.12   0.13    -0.06   0.05   0.00
    23   8     0.00   0.01   0.00     0.04   0.10   0.08     0.00  -0.00  -0.00
    24   8    -0.03  -0.00   0.00    -0.11  -0.07  -0.01     0.00  -0.00  -0.00
[...]
 017245,-0.00014006,-0.00001361,-0.00010306,-0.00018431,0.00050107,0.00
 053019,0.00017481,0.00000897,-0.00007102,-0.00014878,-0.00004529,-0.00
 046132,0.00037883,-0.00055951,-0.00002175,0.00007544,-0.00002992,-0.00
 006462,-0.00060651,-0.00078125,0.00009926,-0.00008205,-0.00005120,0.00
 029783,-0.00012440,-0.00011677,0.00043415,-0.00003948,-0.00100082,0.00
 013682,0.00340787,0.00119623,0.00391884,-0.00302844,-0.00004676,-0.000
 80172,0.00127129,-0.00124096,-0.00206153,-0.00069618,-0.00004121,-0.00
 030840,0.00038291,-0.00012782,0.00008205,0.00009807,0.00000914,-0.0001
 4828,-0.00015923,-0.00007439,0.00008423,-0.00008647,0.05088486,0.15987
 804,-0.18149458,-0.00646564,0.01994687,-0.00284049,0.00104278,0.013876
 47,-0.01536365,0.02290069,-0.03387782,0.00778341,-0.00086930,0.0096360
 8,-0.00359682,0.11508723,-0.01728360,-0.15831661,0.00273547,0.00271742
 ,0.00197725,0.01569327,-0.00550696,-0.01572944,-0.20809863,-0.17042252
 ,0.43602656,-0.00023430,0.00040359,0.00016499,0.00003926,-0.00028439,0
 .00001531,0.00017445,0.00021648,-0.00009977,0.00007502,-0.00000869,-0.
 00001359,0.00002957,-0.00000126,-0.00002144,-0.00015999,-0.00019561,0.
 00002268,0.00001500,0.00002216,-0.00001018,0.00003560,0.00001117,0.000
 02622,0.00002891,-0.00001836,0.00002144,0.00000001,0.00000208,-0.00000
 654,-0.00000936,0.00000681,-0.00000423,0.00000083,-0.00000992,-0.00002
 101,0.00004177,0.00005132,0.00004427,-0.00000320,-0.00001026,-0.000006
 40,-0.00001277,-0.00005411,0.00000211,-0.00003657,0.00000290,0.0000054
 9,0.00000491,-0.00001447,-0.00003431,-0.00004497,0.00000296,0.00000227
 ,-0.00000331,0.00004392,-0.00001180,0.00000595,0.00001467,-0.00000332,
 -0.00005884,0.00005185,-0.00023406,0.00006214,0.00000272,0.00037513,0.
 00009807,-0.00009024,-0.00004501,-0.00001307,0.00006856,-0.00018111,-0
 .00000273,-0.00003495,-0.00003898,-0.00000714,-0.00000760,0.00000983,0
 .00001854,-0.00000033,0.00000858,0.00000218,-0.00001007,-0.00000202,0.
 00086700,-0.00676281,-0.00256587,-0.00025484,0.00048256,0.00330590,0.0
 0024233,-0.00075891,-0.00032332,-0.00163186,0.00401538,0.00317991,0.00
 113654,-0.00046340,0.00053556,-0.01223291,0.01628195,-0.00372306,0.000
 35925,0.00125569,0.00016007,-0.00012051,-0.00010446,-0.00073526,-0.109
 01439,0.07820697,0.00724291,0.50666987,0.00027810,-0.00006626,-0.00024
 227,0.00021106,0.00053621,-0.00035452,-0.00034484,0.00002217,0.0006170
 6,-0.00006022,-0.00003766,-0.00000816,-0.00015654,-0.00014690,-0.00005
 823,0.00035213,-0.00013835,-0.00019918,-0.00006995,0.00001608,-0.00009
 894,0.00001184,0.00004403,-0.00001926,-0.00002675,0.00001440,-0.000030
 86,0.00001565,-0.00000728,-0.00000891,-0.00000937,0.00000777,0.0000028
 8,0.00002244,0.00000320,0.00002777,-0.00005750,-0.00002439,-0.00003141
 ,0.00000353,-0.00000652,0.00000488,0.00003823,0.00004607,-0.00001788,-
 0.00000394,0.00000810,-0.00000518,-0.00001045,0.00000091,0.00000515,0.
 00000742,0.00001345,0.00000622,0.00002364,-0.00006744,0.00001212,0.000
 00325,-0.00003898,0.00001054,-0.00002603,0.00011717,0.00034693,-0.0002
 3183,-0.00023026,-0.00049859,0.00009435,0.00012391,0.00010987,0.000248
 17,0.00008435,0.00030017,-0.00003088,0.00011871,0.00010442,0.00003340,
 -0.00000231,-0.00002423,0.00001129,0.00001685,-0.00001318,0.00001164,-
 0.00000684,-0.00002191,0.00830776,-0.01807781,0.00105701,0.00436281,-0
 .00645305,0.00192611,-0.00031883,0.00040506,-0.00041366,0.00081593,-0.
 00041230,0.00141728,0.00105127,-0.00079470,0.00030509,0.00390462,-0.00
 628024,-0.00217699,0.00038188,-0.00005924,0.00036229,-0.00064023,0.000
 40525,-0.00004024,0.07365039,-0.18791828,0.01338262,0.02569577,0.47685
 282,-0.00025740,-0.00009168,-0.00013686,0.00041548,0.00023340,-0.00035
 652,-0.00051057,0.00012755,0.00064233,0.00005874,0.00000020,0.00001519
 ,-0.00009795,-0.00006978,-0.00008069,0.00040533,-0.00027195,-0.0002729
 5,-0.00003298,0.00001983,-0.00005744,0.00001467,0.00001878,0.00004250,
 -0.00000664,0.00000506,0.00000395,0.00000057,0.00001732,-0.00000464,-0
 .00001446,0.00001492,0.00000905,-0.00000062,0.00000248,0.00001193,0.00
 000310,0.00002843,-0.00001618,0.00000320,0.00002532,-0.00002567,-0.000
 01736,0.00002356,0.00004831,-0.00000308,0.00000371,0.00002033,-0.00000
 486,0.00001861,-0.00003413,-0.00000115,-0.00001132,0.00000285,0.000012
 80,0.00000584,-0.00000630,-0.00000556,0.00000660,0.00001161,-0.0000501
 5,0.00014242,0.00013288,0.00009431,-0.00027680,-0.00025276,0.00007035,
 0.00009588,0.00010190,-0.00004529,0.00008517,0.00010650,-0.00003319,0.
 00002577,0.00006050,0.00000825,0.00000151,0.00001633,-0.00000347,-0.00
 000934,0.00001631,-0.00000088,-0.00002136,0.00000192,-0.01229551,0.009
 67517,0.00060102,0.00102507,0.00417468,-0.00022895,-0.00072293,0.00036
 017,-0.00011669,0.00546419,0.00032457,-0.00157973,-0.00031915,0.001631
 92,0.00049221,0.00753395,-0.01855412,-0.00071592,0.00066701,-0.0006176
 1,0.00082422,-0.00059318,-0.00054641,-0.00012729,0.00814498,0.01614888
 ,-0.06834513,-0.02024992,-0.00385670,0.52290079,-0.00037602,0.00006396
 ,0.00007176,0.00008005,-0.00014414,-0.00003987,0.00006832,0.00035801,-
 0.00001894,0.00000123,0.00000719,0.00000525,-0.00003481,0.00002627,0.0
 0003801,-0.00004750,-0.00029017,-0.00000203,0.00000383,-0.00000831,0.0
 0001558,-0.00002042,0.00001413,-0.00001541,0.00000425,0.00001004,-0.00
 000357,-0.00000922,-0.00000335,0.00000769,0.00000669,-0.00001814,-0.00
 000125,-0.00001183,-0.00000324,-0.00000374,-0.00000855,0.00000750,-0.0
 0001329,0.00000267,-0.00000226,0.00000710,-0.00001048,-0.00000890,-0.0
 0000082,0.00002464,-0.00001755,0.00000051,0.00000092,-0.00000263,0.000
 02025,0.00001977,-0.00002635,0.00000272,-0.00000446,-0.00000549,0.0000
 0075,0.00000426,-0.00001581,0.00000332,0.00009060,-0.00008992,-0.00001
 420,-0.00018801,0.00044594,0.00009567,0.00006361,-0.00018638,-0.000038
 84,0.00008583,-0.00027506,-0.00010794,0.00002219,-0.00004978,-0.000030
 41,0.00000670,0.00000197,-0.00000912,0.00000487,-0.00000498,-0.0000091
 3,-0.00001303,0.00000268,-0.00000164,-0.00055186,0.00180158,0.00109276
 ,-0.00034863,0.00070839,-0.00028740,-0.00009753,0.00011650,-0.00016793
 ,0.00020676,-0.00022631,-0.00029352,-0.00002994,0.00037055,-0.00023022
 ,0.00056604,0.00116345,0.00003868,-0.00008514,-0.00004797,-0.00010333,
 0.00012960,0.00001995,-0.00004083,0.01118653,0.01345282,-0.00125449,-0
 .14434643,-0.12106233,0.00502526,0.16148741,0.00023341,0.00022700,0.00
 008257,-0.00018223,-0.00001186,0.00014015,0.00021220,-0.00007529,-0.00
 026064,0.00001212,-0.00001925,-0.00000024,0.00006664,0.00002437,0.0000
 4399,-0.00018802,0.00010448,0.00010136,0.00001657,-0.00001664,0.000042
 80,0.00000026,0.00000612,-0.00000798,0.00000393,-0.00000635,0.00001285
 ,-0.00000653,-0.00000091,0.00000474,-0.00000071,-0.00000234,-0.0000056
 7,-0.00000735,-0.00000127,-0.00001095,0.00001295,0.00000980,0.00001881
 ,-0.00000706,-0.00000727,0.00000984,-0.00000438,-0.00003734,-0.0000178
 6,-0.00000915,-0.00000449,-0.00000967,0.00000114,0.00000042,0.00000337
 ,-0.00001511,0.00000626,-0.00000228,-0.00001257,0.00001491,-0.00000199
 ,-0.00000023,0.00001116,-0.00000455,-0.00005371,-0.00003377,-0.0001359
 6,0.00005812,0.00004217,0.00030543,-0.00003101,-0.00002638,-0.00005993
 ,-0.00001813,0.00001800,-0.00015320,0.00002253,-0.00003460,-0.00006246
 ,-0.00000914,-0.00000441,0.00001209,-0.00000275,0.00000143,0.00000403,
 -0.00000878,0.00000018,-0.00000715,0.00100396,-0.00319989,-0.00375136,
 0.00064287,-0.00043213,0.00043958,0.00010518,0.00020513,-0.00029133,-0
 .00015285,-0.00013085,0.00094982,0.00042419,-0.00057002,0.00028067,-0.
 00135489,0.00046315,0.00052572,0.00005138,0.00020466,0.00006253,-0.000
 00097,-0.00007115,-0.00028782,-0.00995162,-0.03615710,0.00573321,-0.11
 686624,-0.17573298,0.00316110,0.13285174,0.21577244,-0.00005070,0.0000
 3112,0.00004582,0.00002637,0.00003574,0.00005259,0.00001050,-0.0000815
 6,0.00003437,-0.00000338,0.00000459,-0.00000414,-0.00000693,0.00000569
 ,-0.00003993,-0.00000448,0.00002972,-0.00005907,0.00000502,0.00000537,
 -0.00000073,-0.00000132,0.00000581,0.00000374,0.00000192,0.00000401,-0
 .00000173,0.00000370,-0.00000316,-0.00000191,0.00000315,-0.00000481,-0
 .00000593,0.,-0.00000574,-0.00000247,-0.00000375,-0.00000056,-0.000008
 16,0.00000669,-0.00000276,-0.00000093,0.00001404,-0.00000517,0.0000078
 2,0.00000420,0.00000033,-0.00000006,0.00000501,0.00000140,0.00000657,0
 .00000383,-0.00000120,-0.00000430,-0.00000086,-0.00000305,-0.00000305,
 -0.00000149,-0.00000557,0.00000387,-0.00001147,0.00003124,-0.00011348,
 -0.00002579,-0.00018330,0.00010399,0.00001009,0.00002370,0.00000360,0.
 00004141,0.00012108,-0.00003754,-0.00000158,0.00000839,-0.00002246,-0.
 00000181,0.00000037,-0.00000066,-0.00000223,0.00000539,0.00000087,-0.0
 0000996,-0.00000210,-0.00000280,-0.00062405,0.00158239,0.00006684,0.00
 038905,-0.00025392,-0.00062050,0.00005479,-0.00009787,0.00014340,-0.00
 005520,-0.00043273,0.00011085,-0.00002544,0.00007106,0.00009280,-0.000
 26205,-0.00007148,0.00069780,0.00000758,0.00001894,0.00001290,0.000368
 66,-0.00025100,-0.00013416,0.00133631,0.00275876,0.00112042,0.00400732
 ,0.00350951,-0.04317309,-0.00393481,-0.00642885,0.04428117,-0.00027986
 ,0.00018111,0.00020232,-0.00005649,-0.00023475,0.00009412,0.00036618,0
 .00017476,-0.00009273,-0.00001261,0.00000966,-0.00000604,0.00001721,0.
 00003057,-0.00003652,-0.00023122,-0.00004963,-0.00005650,-0.00000537,0
 .00002607,-0.00000447,-0.00001468,0.00003155,0.00000129,-0.00000391,0.
 00000238,-0.00000727,-0.00000273,-0.00000201,-0.00000106,-0.00000400,-
 0.00000830,0.00000164,-0.00000497,-0.00000613,0.00000474,-0.00002556,0
 .00000331,-0.00001165,0.00000333,-0.00000677,0.00000275,0.00001633,0.0
 0001291,-0.00000424,0.00000293,-0.00000530,0.00000184,0.00000195,-0.00
 000126,0.00001120,0.00000390,-0.00000994,0.00000550,-0.00000246,-0.000
 01545,0.00000179,-0.00000135,-0.00001839,-0.00000102,-0.00000446,0.000
 00078,-0.00019499,0.00002871,-0.00006475,0.00022834,0.00002371,-0.0000
 6932,-0.00007810,0.00002643,0.00013913,-0.00003333,-0.00001366,0.00001
 563,-0.00001491,-0.00000162,-0.00000572,-0.00000417,0.00000578,0.00000
 509,-0.00000127,0.00000304,-0.00000851,-0.00000568,0.00037310,0.000071
 91,-0.00022490,0.00038708,-0.00095134,0.00008271,0.00021892,0.00011312
 ,-0.00004090,-0.00073145,0.00030493,0.00060228,0.00026874,-0.00031899,
 -0.00005995,-0.00092668,0.00372298,0.00017777,-0.00003525,0.00014976,-
 0.00014313,0.00025832,-0.00002606,-0.00028118,-0.01533604,0.00643196,0
 .01553769,-0.12622343,0.00786062,0.11428533,-0.01380140,-0.00196131,0.
 01836643,0.14599426,0.00060664,0.00007915,-0.00015768,-0.00016609,0.00
 017323,0.00014747,0.00015988,-0.00027273,-0.00000182,0.00000463,-0.000
 01656,0.00000782,0.00001375,-0.00004142,-0.00006954,-0.00016806,0.0002
 1808,-0.00000116,-0.00000504,0.00003883,-0.00000702,0.00002720,-0.0000
 1789,0.00002042,-0.00000229,0.00000275,0.00000431,0.00000179,0.0000002
 2,-0.00000702,-0.00001770,0.00000934,-0.00000778,0.00000025,0.00000147
 ,-0.00000630,0.00001956,-0.00000584,0.00001876,-0.00000024,0.00000449,
 -0.00001123,0.00002290,-0.00001084,0.00001481,-0.00002807,0.00001050,-
 0.00000559,-0.00000631,0.00000339,-0.00001856,-0.00003709,0.00002111,-
 0.00001450,-0.00000310,0.00002062,-0.00000758,-0.00000547,0.00003293,-
 0.00001133,-0.00012890,-0.00000294,0.00014799,0.00029494,-0.00005068,-
 0.00025626,-0.00009469,-0.00000125,0.00007218,-0.00016717,0.00009677,0
 .00011717,-0.00003510,0.00000267,0.00003374,-0.00001842,0.00001219,0.0
 0001661,-0.00000215,-0.00000449,-0.00000029,-0.00000655,0.00000209,0.0
 0000359,0.00117724,0.00085995,-0.00178583,-0.00044551,0.00114838,-0.00
 053253,0.00013156,-0.00055744,0.00027216,0.00131230,-0.00103825,-0.000
 24630,-0.00027807,-0.00009815,0.00003248,0.00174020,-0.00438661,0.0005
 8492,0.00011040,-0.00026817,0.00016576,-0.00005135,-0.00007572,0.00006
 973,0.02102189,-0.00664283,-0.02245817,0.00390001,-0.04334852,-0.00719
 512,-0.01443549,0.00074936,0.01888282,-0.01457047,0.05199881,0.0001701
 4,0.00009040,0.00004990,-0.00003644,-0.00000037,0.00004541,-0.00002614
 ,-0.00005441,0.00014313,-0.00002348,0.00000475,0.00000537,-0.00000592,
 -0.00004841,-0.00004339,-0.00002052,0.00001221,-0.00016976,0.00001330,
 0.00002116,-0.00001394,0.00000458,-0.00000130,0.00000997,-0.00000240,0
 .00000257,0.00000194,-0.00000322,0.00000207,-0.00000009,-0.00000112,-0
 .00000194,-0.00000698,-0.00000627,-0.00000724,-0.00000864,0.00000177,0
 .00000295,-0.00000478,0.00000068,0.00000661,-0.00000811,-0.00000067,-0
 .00000134,0.00002190,0.00000197,-0.00000597,-0.00000049,-0.00000094,0.
 00001521,-0.00000995,-0.00000789,0.00000928,-0.00001240,-0.00000468,0.
 00000612,-0.00000709,-0.00000427,0.00000138,-0.00000666,-0.00005463,0.
 00002598,-0.00005574,0.00022243,-0.00020580,-0.00005330,-0.00006012,0.
 00003980,0.00001846,-0.00016491,0.00007017,0.00011422,-0.00002469,0.00
 001152,0.00000827,-0.00001302,0.00001361,0.00000270,-0.00000862,0.0000
 0146,0.00001206,-0.00000005,0.00000851,0.00000233,-0.00071087,0.000128
 89,0.00097101,-0.00037994,0.00033535,0.00010126,-0.00006558,0.00012388
 ,0.00017808,0.00004379,0.00050338,-0.00000615,-0.00015569,-0.00003301,
 0.00004543,-0.00002309,-0.00008919,0.00031071,-0.00006389,0.00003041,0
 .00004553,-0.00028139,0.00000872,0.00022227,0.00327295,-0.00317260,-0.
 00024834,0.11792812,-0.01247992,-0.20486015,0.00217175,0.00126053,-0.0
 0155390,-0.13553736,0.01384482,0.23104836,0.00058429,0.00021390,-0.000
 20100,-0.00010177,0.00012300,-0.00007084,0.00003599,0.00006116,0.00018
 111,0.00000064,-0.00001758,0.00000508,0.00001296,-0.00000467,-0.000015
 68,-0.00009534,-0.00013001,-0.00002295,-0.00002463,0.00004501,-0.00001
 966,0.00003640,0.00001043,0.00001623,-0.00000606,-0.00000160,-0.000001
 25,0.,-0.00000050,-0.00000829,-0.00002682,0.00000120,-0.00000374,-0.00
 000432,-0.00000067,0.00000361,0.00001176,0.00001980,-0.00000031,0.0000
 0754,-0.00000246,-0.00001028,0.00000180,0.00000888,0.00001207,-0.00001
 559,-0.00001489,0.00000489,-0.00000028,0.00000728,-0.00002398,-0.00003
 964,-0.00000523,-0.00000612,-0.00000098,0.00000308,-0.00000427,-0.0000
 0491,0.00001578,0.00000301,-0.00006960,-0.00006803,0.00030065,0.000256
 91,0.00053245,-0.00044468,-0.00013648,-0.00018045,0.00011820,-0.000185
 85,-0.00033175,0.00019443,-0.00004495,-0.00004262,0.00005640,-0.000032
 42,0.00001792,-0.00000428,-0.00000010,-0.00002575,-0.00001444,-0.00000
 257,0.00000590,0.00001013,-0.00182145,-0.00162730,-0.00010692,-0.00092
 628,0.00094852,0.00046830,0.00001155,-0.00006735,0.00017203,0.00045797
 ,0.00081085,-0.00021699,-0.00007044,-0.00030009,0.00016919,0.00049030,
 -0.00026093,-0.00126765,0.00016368,-0.00002096,0.00011701,-0.00024207,
 0.00002418,-0.00004296,-0.01295516,0.01340820,-0.01444351,-0.11549653,
 -0.00434747,-0.10796627,-0.01408148,-0.00487445,-0.01963877,0.00971929
 ,0.00012820,0.01385634,0.13459466,-0.00025815,0.00006919,0.00022211,-0
 .00007812,-0.00029023,0.00023458,0.00035250,-0.00000338,-0.00030713,-0
 .00002603,0.00000954,-0.00001593,0.00001581,0.00001666,0.00002006,-0.0
 0023263,0.00012476,0.00000577,0.00002460,0.00000549,0.00000858,-0.0000
 2275,0.00000291,-0.00000944,0.00000535,0.00000346,0.00000453,-0.000003
 10,0.00000076,0.00000230,0.00000228,-0.00000351,-0.00000119,-0.0000034
 3,0.00000263,0.00000007,-0.00000544,-0.00001383,0.00000660,-0.00000371
 ,-0.00000272,0.00000621,0.00001106,-0.00000309,-0.00001812,0.00000177,
 0.00000475,-0.00000841,0.00000014,0.00000581,0.00001236,0.00000592,0.0
 0001155,-0.00000286,-0.00000891,-0.00000103,0.00000867,0.00000183,-0.0
 0000243,0.00000105,-0.00013279,0.00015867,-0.00041892,0.00034020,-0.00
 101414,0.00046431,0.00000904,0.00024865,-0.00009223,-0.00028228,0.0008
 9993,-0.00010540,-0.00004841,0.00012620,-0.00000604,0.00000256,-0.0000
 0441,0.00001123,-0.00002477,0.00003441,0.00003222,-0.00000255,-0.00001
 918,-0.00002731,0.00359992,0.00040207,0.00022990,0.00021132,-0.0012874
 6,-0.00057618,0.00011330,0.00012387,-0.00013938,-0.00055891,-0.0009690
 7,0.00015689,0.00003238,-0.00024642,-0.00018342,0.00016464,0.00073048,
 0.00183231,-0.00019838,-0.00003989,-0.00012411,-0.00016511,0.00020913,
 0.00027407,0.02171726,-0.01143189,0.02416190,-0.00504346,-0.03898620,-
 0.00485664,-0.01449814,-0.00128473,-0.01930259,-0.00095382,0.00135403,
 -0.00048025,-0.00406097,0.05105867,0.00020429,0.00001830,-0.00006638,-
 0.00007104,0.00015983,-0.00016211,-0.00008189,-0.00002699,0.00022107,0
 .00001996,-0.00002455,0.00000071,0.00000598,0.00004097,0.00002633,0.00
 007125,-0.00008655,-0.00008001,-0.00001376,-0.00001137,0.00002254,0.00
 000512,0.00000102,0.00000373,0.00000396,0.00000111,0.00000500,0.000005
 13,-0.00000512,-0.00000718,-0.00000439,-0.00000465,-0.00000588,0.00000
 615,0.00000504,0.00000429,0.00000424,0.00000734,0.00000738,0.00000569,
 -0.00000781,-0.00000216,-0.00000634,-0.00000127,-0.00001022,0.00000366
 ,-0.00000895,-0.00000032,0.00000149,-0.00000502,-0.00000388,-0.0000061
 6,-0.00000963,-0.00000356,0.00000567,-0.00000042,0.00000423,0.00000567
 ,0.00000095,0.00000861,0.00000353,-0.00001602,0.00009566,-0.00014135,0
 .00024901,0.00010501,0.00001001,-0.00006425,-0.00003264,0.00010978,-0.
 00010446,-0.00018978,0.00002477,-0.00001828,-0.00002520,0.00000025,-0.
 00000019,-0.00000667,0.00000242,-0.00000501,-0.00001457,-0.00000286,-0
 .00001414,-0.00000713,-0.00081921,-0.00008924,0.00020675,0.00015361,-0
 .00007373,0.00025492,-0.00013377,-0.00018576,-0.00001656,0.00004454,0.
 00037850,-0.00024053,-0.00003597,-0.00019881,0.00011184,0.00091625,-0.
 00081427,-0.00005365,0.00001534,-0.00007191,-0.00001067,0.00002491,-0.
 00008091,-0.00005047,-0.00571545,0.00834637,-0.00016684,-0.10872690,-0
 .00290768,-0.20567156,-0.00197432,-0.00169531,-0.00099840,-0.01276637,
 -0.00165593,-0.02628842,0.12884614,-0.00102017,0.23303671\\-0.01551752
 ,-0.00363860,-0.00058040,0.01034363,0.00165693,-0.00897751,-0.02383723
 ,0.00902266,0.01290703,-0.00010068,0.00052714,0.00005128,0.00023767,-0
 .00116281,-0.00011280,0.02082224,-0.01002860,-0.00393344,-0.00148489,0
 .00013731,-0.00054948,-0.00147733,0.00006034,-0.00002689,-0.00051423,0
 .00067972,-0.00044565,0.00011371,-0.00011789,0.00009441,0.00051135,-0.
 00047296,0.00022081,0.00017762,-0.00010986,0.00007692,-0.00103623,-0.0
 0030787,-0.00045652,0.00019335,0.00002301,0.00016007,0.00024494,0.0002
 0144,-0.00001860,0.00065472,0.00024675,0.00020317,0.00037226,0.0000711
 7,-0.00061029,0.00057406,-0.00043789,-0.00007810,0.00011342,0.00004699
 ,-0.00001523,0.00067636,0.00047412,0.00016904,0.00392874,-0.00032177,-
 0.00432390,-0.01952800,-0.00008802,0.01014650,0.01280420,0.00285915,-0
 .00281130,0.00481502,-0.00039252,-0.00230646,0.00102617,-0.00070506,-0
 .00096003,-0.00042202,-0.00039271,-0.00030526,0.00019781,0.00067762,-0
 .00041124,0.00053232,-0.00039320,0.00055733,-0.00461396,-0.00431242,0.
 00733502,0.00420294,-0.01009161,0.00436078,-0.00050239,-0.00085482,-0.
 00058357,-0.00051504,0.00185770,-0.00164833,0.00737685,0.01243419,-0.0
 0147300,-0.00018694,-0.00131998,-0.00028735,-0.00043732,0.00030017,-0.
 00017132,-0.00030526,-0.00039007,0.00028263,0.00029819,0.00682483,-0.0
 0506211,0.00068829,-0.00301117,-0.00039609,-0.00049071,0.00027482,0.00
 002320,0.00030420,-0.00017198,-0.00037286,-0.00024034,0.00034577,0.000
 32954\\\@
 The archive entry for this job was punched.


 FROM WHENCE IT HAPPENS, THAT THEY WHICH TRUST TO BOOKS, DO AS THEY THAT CAST UP MANY LITTLE SUMMS INTO GREATER,
 WITHOUT CONSIDERING WETHER THOSE LITTLE SUMMES WERE RIGHTLY CAST UP OR NOT...
 AND AT LAST FINDING THE ERROUR VISIBLE, AND NOT MISTRUSTING THEIR FIRST GROUNDS,
 KNOW NOT WHICH WAY TO CLEERE THEMSELVES...
 BUT SPEND TIME IN FLUTTERING OVER THEIR BOOKES....
 AS BIRDS THAT ENTERING BY THE CHIMNEY, AND FINDING THEMSELVES INCLOSED IN A CHAMBER,
 FLUTTER AT THE FALSE LIGHT OF A GLASSE WINDOW,
 FOR WANT OF WIT TO CONSIDER WHICH WAY THEY CAME IN....
           LEVIATHAN
 Job cpu time:       0 days  0 hours  0 minutes  0.6 seconds.
 Elapsed time:       0 days  0 hours  1 minutes 15.9 seconds.
 File lengths (MBytes):  RWF=      6 Int=      0 D2E=      0 Chk=      2 Scr=      1
 Normal termination of Gaussian 16 at Sun Nov 26 14:42:05 2023.
