41
 energy: -67.467379526974 gnorm: 0.000163130492 xtb: 6.3.2 (452493c)
C         0.90036991965031    0.39176669694801    1.52300726481623
C         1.99496603508497   -0.39374486119600    1.27777854997232
C         2.62376092864030   -0.45158826671100   -0.00072606103822
C         0.43733182437123    1.43442537939761    0.54176461445758
H         2.36193483480842   -1.05319164891191    2.05006478781838
O         3.43806249836018   -1.32652282747369   -0.31412859819252
C         2.32052451560292    0.70299309862243   -0.93993465259100
C         0.85919406776956    1.15948285593078   -0.91022257370646
C         0.71594096947515    2.45666605641725   -1.71398631830963
H         0.99510186291969    2.28836205421242   -2.75114453601578
H        -0.31352852544851    2.80449024841702   -1.68623525789674
H         1.35626854922033    3.23727649196377   -1.30968508464704
C        -0.02697307126293    0.08726810605127   -1.54388606954572
H         0.29227011817443   -0.11124089689993   -2.56451034499889
H         0.03117861519893   -0.83229864367051   -0.97294757456004
H        -1.06333067394564    0.41312776343790   -1.55748589724509
H         2.61653566437975    0.41895522912421   -1.95170692639201
H        -0.64721478804476    1.51209862340156    0.61202886853424
H         0.86988926169671    2.38189440207432    0.87763321179373
H         2.96927433258146    1.52587308100050   -0.62385357354069
O         0.55667909746077    0.72342098344526    2.82309214032937
S         1.27668613616462    0.05150178648805    4.09834720632254
O         2.63189435774522    0.51747989192521    4.19210317979308
O         1.09269911087829   -1.37309314302543    4.10060612501478
C         0.25664409199470    0.81805100714041    5.35132072234292
H        -0.77295653216913    0.59389181875545    5.10868909446617
H         0.45173861039095    1.88100497912532    5.31306636681391
H         0.53661237352676    0.40047251300565    6.31027246910192
C         0.39480232608055   -2.88385548076843    1.32939311655874
N        -0.50914574732766   -2.00508355021723    1.76219406054877
H         1.09735412976567   -2.71833506058403    0.53938138731142
C        -1.20849017186860   -2.58034203440526    2.78562492413555
O        -0.68721540577423   -0.80695367273346    1.30999421087626
C        -0.69893527544370   -3.82958473708704    2.96708206060958
H        -1.99862813939966   -2.06194991673266    3.28542768975626
H        -0.97244700982861   -4.59004199413063    3.66857487124683
N         0.29819478098926   -4.00400196469546    2.06356520051999
C         1.12644264239859   -5.17383048434273    1.93709470244311
H         0.50693203110087   -6.05217149191996    1.75038583092479
H         1.81895475913230   -5.03498952749011    1.10967693301938
H         1.69583689495375   -5.32674186391835    2.85509887913573
41
 energy: -67.467514936649 gnorm: 0.000148730626 xtb: 6.3.2 (452493c)
C         0.90650166357543    0.39654906501975    1.52677544288385
C         1.99720739630749   -0.39256234776844    1.27714345220625
C         2.62052719997809   -0.45449477486719   -0.00424300618895
C         0.43916564248352    1.43574714972778    0.54285218491668
H         2.36475187241733   -1.05273524898537    2.04867164636608
O         3.42705047336732   -1.33492935619424   -0.32158966986910
C         2.32053068569066    0.70301549381892   -0.94055580340584
C         0.85968929845006    1.16110245023735   -0.90944421998548
C         0.71729944270868    2.45879491336052   -1.71257013848332
H         0.99424858351139    2.29037201572093   -2.75029369358588
H        -0.31151830463725    2.80839395725257   -1.68279408013953
H         1.35971741195483    3.23814998458758   -1.30914311123991
C        -0.02820774851940    0.09001054036908   -1.54253038337563
H         0.29348578754795   -0.11313645508098   -2.56147077367521
H         0.02471685850392   -0.82768507932903   -0.96805567324161
H        -1.06334233269979    0.41959269605884   -1.56056880529270
H         2.61630458816462    0.42146865499741   -1.95307033861571
H        -0.64557056827999    1.50972241326475    0.61451837312066
H         0.86864727178344    2.38525868740036    0.87705124784577
H         2.97005974768553    1.52415865646313   -0.62165940506523
O         0.56369994187012    0.72528696039624    2.81822399817493
S         1.27845527261110    0.05241712293490    4.09843025447026
O         2.63348636953368    0.51764725368502    4.19600796580506
O         1.09339909773316   -1.37180342609030    4.10062365289811
C         0.25324225177596    0.82164266058613    5.34527564909777
H        -0.77526456771686    0.59799831389810    5.09743216368010
H         0.44938062004171    1.88440210794832    5.30630294602856
H         0.52758127127684    0.40540698724447    6.30646143064586
C         0.39437890495949   -2.88590175559042    1.33181140261917
N        -0.50961956817273   -2.00790807708822    1.76587931911230
H         1.09668557366930   -2.71913161290747    0.54187710544776
C        -1.20837461931970   -2.58496943685657    2.78884068074504
O        -0.68844453709474   -0.80985197982572    1.31508214411969
C        -0.69792192421200   -3.83411531990301    2.96898661698313
H        -1.99850002434207   -2.06763211815881    3.28975748506178
H        -0.97074451518275   -4.59544077235684    3.66980503038028
N         0.29888595449704   -4.00703786619636    2.06499357797690
C         1.12767003834639   -5.17622844802893    1.93646616584933
H         0.50926757678960   -6.05373351687772    1.74207872959560
H         1.82407370123912   -5.03298066472769    1.11306894574357
H         1.69260821170675   -5.33391882816825    2.85638649037337
41
 energy: -67.467645117989 gnorm: 0.000106356075 xtb: 6.3.2 (452493c)
C         0.90913185871801    0.40112684816009    1.52520552932207
C         1.99748699743712   -0.38955446905146    1.27819027848575
C         2.61941917129084   -0.45478189479651   -0.00487305779051
C         0.43963023435668    1.43820183022641    0.54144197493811
H         2.36471385557976   -1.04920581007572    2.05016687570993
O         3.42197358727528   -1.33820972864004   -0.32198543883277
C         2.32103013768341    0.70251596224090   -0.94141554355541
C         0.86049884306997    1.16203144162520   -0.91065677168345
C         0.71966037852379    2.45870063881280   -1.71562398974945
H         0.99562714989913    2.28805894884816   -2.75325227521154
H        -0.30854764161474    2.81004252389800   -1.68582203944460
H         1.36362494700201    3.23766595815879   -1.31393612520697
C        -0.02842644531784    0.09082426312341   -1.54212305255680
H         0.29493588609723   -0.11689567024171   -2.55959228714832
H         0.02083451512205   -0.82474350514806   -0.96394192614719
H        -1.06273588578874    0.42279567474194   -1.56364391035396
H         2.61643956829178    0.42022983200087   -1.95381749318453
H        -0.64525090410404    1.51014237750356    0.61293214115213
H         0.86709726906973    2.38904722225729    0.87454811626876
H         2.97126836422044    1.52314895365610   -0.62274204910700
O         0.56114071746250    0.72903021245501    2.82134745220746
S         1.27692748904162    0.05485531998891    4.09888835689743
O         2.63200244855206    0.52056384936721    4.19555501568433
O         1.09291396212962   -1.36955530379296    4.09932046813320
C         0.25347086826838    0.82054120742899    5.34943155767412
H        -0.77536910536136    0.59708952322231    5.10284695925476
H         0.44909286014562    1.88349328053168    5.31354695913063
H         0.52988954539219    0.40125057497634    6.30869018634908
C         0.39339012827584   -2.88654508343660    1.33203075702837
N        -0.51152882206194   -2.00954470732802    1.76624682189391
H         1.09509346012216   -2.71923586245521    0.54167825247057
C        -1.20903830276379   -2.58758612402523    2.78954748093625
O        -0.69308836849967   -0.81258206579230    1.31515280195050
C        -0.69703141000869   -3.83614695366558    2.96961890948153
H        -1.99950377544009   -2.07125074418222    3.29094053972994
H        -0.96860966580705   -4.59761782121329    3.67074773519639
N         0.29948682791866   -4.00798133835653    2.06522062570711
C         1.12862927336025   -5.17678362863514    1.93547241326289
H         0.51055072061003   -6.05397367578091    1.73850617405871
H         1.82599661375229   -5.03187555765018    1.11319074211106
H         1.69238264810276   -5.33634549898570    2.85577583492135
41
 energy: -67.467772684473 gnorm: 0.000187070950 xtb: 6.3.2 (452493c)
C         0.91383757304368    0.40513518156926    1.52738733147634
C         1.99870414005745   -0.38866897537806    1.27826832982155
C         2.61658908403536   -0.45727369495231   -0.00712844616104
C         0.44087914779538    1.43967823645656    0.54239704572715
H         2.36585467168110   -1.04887268290880    2.04985778815815
O         3.41313374073626   -1.34483581194803   -0.32682081871515
C         2.32068989893408    0.70200778647834   -0.94162925887992
C         0.86071135754867    1.16340512585163   -0.90991862918615
C         0.72133509815184    2.46030765507890   -1.71472612093180
H         0.99501770980749    2.28890518441494   -2.75282663079603
H        -0.30603207217239    2.81395023911847   -1.68310440098343
H         1.36776481580796    3.23786188393900   -1.31425482547798
C        -0.03022895735433    0.09338310953702   -1.54054311215374
H         0.29650945348575   -0.12075323963424   -2.55558322679308
H         0.01209448755825   -0.81944962747350   -0.95752452124861
H        -1.06289929942852    0.43006269656853   -1.56819147986202
H         2.61574914521324    0.42130854623235   -1.95454780804355
H        -0.64414843087001    1.50845541868610    0.61504509834275
H         0.86575917372776    2.39213250636076    0.87431018379384
H         2.97182748203401    1.52115325499991   -0.62102081858078
O         0.56461240656460    0.73043201306846    2.81934342919151
S         1.27782992176371    0.05568379416201    4.09933467724298
O         2.63312968161810    0.52047368408403    4.19706291803534
O         1.09257755544378   -1.36840991390530    4.09999128188951
C         0.25259289503803    0.82427207868333    5.34650681235438
H        -0.77585584241996    0.60256770579102    5.09663924579217
H         0.45038546354081    1.88681386023542    5.30969371000100
H         0.52487263893830    0.40587911051824    6.30733580248125
C         0.39329520901999   -2.88863010035098    1.33280085803312
N        -0.51257931609135   -2.01264829771889    1.76701320876089
H         1.09515994797936   -2.72048228529269    0.54277445946747
C        -1.21027366525194   -2.59226718400474    2.78933229722995
O        -0.69534219596246   -0.81599676831328    1.31706682220399
C        -0.69712776035622   -3.84044023697692    2.96912863556675
H        -2.00150253160417   -2.07703711881164    3.29065517686599
H        -0.96853365927508   -4.60254996803132    3.66959620394942
N         0.30004205659533   -4.01080209951567    2.06530324010788
C         1.13105098425870   -5.17825914494021    1.93567502259180
H         0.51480899736837   -6.05600038863494    1.73536708309230
H         1.83040664413678   -5.03081857399753    1.11553107937737
H         1.69251234890553   -5.33873195907463    2.85721735624224
41
 energy: -67.467897010246 gnorm: 0.000178594407 xtb: 6.3.2 (452493c)
C         0.91718620000225    0.40891590570436    1.52733121302173
C         1.99992693161150   -0.38622750311067    1.27896281940726
C         2.61681345713055   -0.45667737035264   -0.00772073465528
C         0.44198767458785    1.44143612428003    0.54203799310166
H         2.36702981834854   -1.04629216349399    2.05061809723918
O         3.41083270548903   -1.34603360516610   -0.32720652606308
C         2.32138354583475    0.70219683507729   -0.94246071654855
C         0.86153767537196    1.16437622190604   -0.91033528243515
C         0.72223994440142    2.46089051437952   -1.71577315127795
H         0.99517940506180    2.28891154350115   -2.75396785229747
H        -0.30507566154583    2.81464819442686   -1.68368663617868
H         1.36900340965695    3.23856867903316   -1.31610746820237
C        -0.02999498725074    0.09444581733387   -1.54023138978619
H         0.29671822879685   -0.12081565205668   -2.55503819458637
H         0.01132786945264   -0.81783315465048   -0.95628512473463
H        -1.06239844470924    0.43188933178740   -1.56835616247480
H         2.61565886697552    0.42072884638725   -1.95540019999867
H        -0.64314076101739    1.50815882313938    0.61518098884579
H         0.86500308364341    2.39529189839090    0.87244006148651
H         2.97313198436918    1.52114344985679   -0.62265708781353
O         0.56337973880051    0.73104304005497    2.82009161555180
S         1.27695604991733    0.05608658847427    4.09958016804199
O         2.63241923887697    0.52070007128328    4.19644478499769
O         1.09186224046438   -1.36801027469317    4.10003700814978
C         0.25274517254541    0.82424536895471    5.34781810410736
H        -0.77595892531253    0.60289517957899    5.09868436272187
H         0.45079898436388    1.88676195881237    5.31168208568451
H         0.52573593178060    0.40504752490486    6.30811126642268
C         0.39165438197483   -2.89021329593825    1.33256159366246
N        -0.51500737976918   -2.01482873260679    1.76632010969737
H         1.09322694186241   -2.72195466518764    0.54231235341273
C        -1.21172607646592   -2.59467036562553    2.78926106733718
O        -0.69914230947711   -0.81915634746250    1.31549039666895
C        -0.69692458138717   -3.84207964262505    2.97005236555242
H        -2.00334747054716   -2.07967709426728    3.29020092275147
H        -0.96688666702489   -4.60374541411283    3.67156136158490
N         0.30002584606316   -4.01207780928740    2.06605376334517
C         1.13151862556857   -5.17914104874506    1.93612368915802
H         0.51567522721272   -6.05713992006114    1.73565056643731
H         1.83067294699859   -5.03121355300798    1.11590024760340
H         1.69318113734680   -5.33965330484571    2.85753252104532
41
 energy: -67.468023312755 gnorm: 0.000106316518 xtb: 6.3.2 (452493c)
C         0.92433168381587    0.42123841763613    1.53784982159923
C         2.00072398943275   -0.38224280309639    1.29283636698374
C         2.61091608675740   -0.46873882701970    0.00324384607796
C         0.44674621497691    1.44445617581305    0.54420186723685
H         2.36748774977299   -1.03709296248198    2.06912269995302
O         3.39600106022108   -1.36693683944182   -0.31246604122629
C         2.31928055357217    0.68428031224661   -0.93939243829720
C         0.86197589100702    1.15471848607314   -0.90698496699248
C         0.72886654713777    2.44595373224893   -1.72190311588687
H         0.99659901120086    2.26390299861291   -2.75973669970030
H        -0.29568729305913    2.80749391016365   -1.68872958148719
H         1.38276945976965    3.22196711641131   -1.33071066403663
C        -0.03791800791881    0.08556133739316   -1.52636168186111
H         0.29159894626269   -0.14848551371091   -2.53606469535308
H        -0.01049766724152   -0.81823033476627   -0.92861578363942
H        -1.06624880786064    0.43428988917044   -1.56541402637844
H         2.60929805579800    0.39361248552338   -1.95095643009989
H        -0.63819928744861    1.51181274340189    0.61981749648022
H         0.87034562736848    2.40124531720737    0.86528681589010
H         2.97608038174265    1.50221294469238   -0.62748792005356
O         0.57349471386127    0.75589324874307    2.82722273937872
S         1.27098979577380    0.07536085955424    4.11280567959822
O         2.62937495783800    0.52941765741729    4.21965899049515
O         1.07544370698662   -1.34720336822732    4.11248668112318
C         0.24280703671758    0.85270755544350    5.35199647954663
H        -0.78561401042448    0.64693295804425    5.08863901001066
H         0.45612853299153    1.91248076751912    5.32294451367672
H         0.49761596090782    0.42561337697598    6.31379611939722
C         0.39029619409430   -2.88071393264420    1.32808053366963
N        -0.51357110006216   -2.01222254401706    1.78100603626827
H         1.08565360126975   -2.70195301039621    0.53476654170507
C        -1.20137238734403   -2.60714277324468    2.80144212556546
O        -0.70366038732256   -0.81155433071874    1.34723536197697
C        -0.68397419962041   -3.85644052612756    2.96089475491289
H        -1.98885793023434   -2.10014193776200    3.31676170862075
H        -0.94793939164165   -4.62821183925554    3.65358515743205
N         0.30596683414377   -4.01282276229886    2.04683679800981
C         1.13599396964431   -5.17777110855829    1.89114644584673
H         0.52009528492538   -6.04903888187696    1.66293851865053
H         1.84059410106360   -5.00907204371841    1.07959970275451
H         1.69127452112787   -5.36419495095818    2.81143623213493
41
 energy: -67.468145580706 gnorm: 0.000155100360 xtb: 6.3.2 (452493c)
C         0.92761352945628    0.42528828805453    1.53824862358311
C         2.00159912096641   -0.37997408901224    1.29303893030853
C         2.61011941383914   -0.46836701436462    0.00204374398498
C         0.44765678702603    1.44654552430972    0.54409090914549
H         2.36809211278035   -1.03529548313896    2.06902287057917
O         3.39128182145574   -1.36921167234651   -0.31461207164705
C         2.31995781569166    0.68543545857579   -0.93969978700190
C         0.86272494270863    1.15637216669841   -0.90710333686278
C         0.72978837844782    2.44715711727893   -1.72271686508658
H         0.99670101995668    2.26422341257530   -2.76060594101949
H        -0.29458897526489    2.80916216585477   -1.68913979417450
H         1.38431738279123    3.22314155599572   -1.33252903442341
C        -0.03753724647348    0.08705072565095   -1.52561959883119
H         0.29241910774212   -0.14894500563937   -2.53472463230112
H        -0.01142818256007   -0.81567214700370   -0.92618638470245
H        -1.06555597072676    0.43660319167908   -1.56586035620551
H         2.60990035388459    0.39536144695970   -1.95144457082674
H        -0.63741423686050    1.51149662895087    0.62015233624711
H         0.86912403106429    2.40463984989213    0.86420529489064
H         2.97698522659356    1.50282084370577   -0.62692653348875
O         0.57289274330726    0.75646198198970    2.82667507752724
S         1.27095096193290    0.07593000165575    4.11239792035831
O         2.62921275007967    0.53060284464389    4.21806379653028
O         1.07588840341417   -1.34663146730391    4.11212323581154
C         0.24320260741024    0.85287607391716    5.35215496601159
H        -0.78528548481155    0.64695412399995    5.08913797858240
H         0.45634192913664    1.91270770555687    5.32350375410843
H         0.49844821419498    0.42540535829969    6.31369168556016
C         0.38912001524746   -2.88316145472860    1.32814220297377
N        -0.51553675367123   -2.01502142834819    1.78018315370468
H         1.08436379466024   -2.70451092317730    0.53470584854453
C        -1.20287468382804   -2.60992738932790    2.80097738694680
O        -0.70679373100111   -0.81534877457288    1.34554965786777
C        -0.68424434362392   -3.85861056738161    2.96170408838934
H        -1.99098076009046   -2.10329948967460    3.31572341101925
H        -0.94732946080302   -4.62979812691250    3.65536732867228
N         0.30580493243594   -4.01492039777123    2.04788016531664
C         1.13645230278692   -5.17945928283349    1.89261203405102
H         0.52110131592235   -6.05109122975699    1.66424636616487
H         1.84119077604681   -5.01046925609223    1.08125277905709
H         1.69152803873844   -5.36558026688714    2.81308836061719
41
 energy: -67.468266532669 gnorm: 0.000145120231 xtb: 6.3.2 (452493c)
C         0.92993405026483    0.42793116287465    1.53716765267717
C         2.00154898533885   -0.37877612613508    1.29128744297926
C         2.60623421370470   -0.46948495181038   -0.00211774925307
C         0.44694660651469    1.44807125832834    0.54365019285097
H         2.36748068890529   -1.03538765596238    2.06639392041637
O         3.38007479814260   -1.37490865687805   -0.32225815094362
C         2.31954803319844    0.68775642535097   -0.94022811978647
C         0.86263490529819    1.16005486450076   -0.90784668876743
C         0.73196344146974    2.45217981483509   -1.72167771502044
H         0.99654401943573    2.26961991836394   -2.76022175517002
H        -0.29131182985556    2.81708518245255   -1.68594436739125
H         1.38938434057917    3.22581141734940   -1.33168312004037
C        -0.03871671226586    0.09267593836672   -1.52816699966730
H         0.29718871042708   -0.14995078472853   -2.53371658014946
H        -0.02206940350603   -0.80712769228876   -0.92401255013405
H        -1.06451982548407    0.44762669292907   -1.57766623596499
H         2.61068233917205    0.40125792502350   -1.95260596612780
H        -0.63832650808701    1.50961598160890    0.61986520767716
H         0.86534752652563    2.40736179676380    0.86433612763789
H         2.97654034024511    1.50339683021450   -0.62294956593667
O         0.57115872590120    0.75486442980807    2.82513353950993
S         1.27141695586124    0.07562506530444    4.11053948761418
O         2.62963403771961    0.53107802704077    4.21339600777289
O         1.07703556831366   -1.34699206496255    4.11133625533985
C         0.24550018177394    0.85308387115918    5.35146337211034
H        -0.78341724619089    0.64757239992889    5.08979692236948
H         0.45908112316824    1.91283831121317    5.32269512649386
H         0.50181947377839    0.42543055289957    6.31264659047056
C         0.39104124088475   -2.88802065186564    1.33026420208820
N        -0.51604902598223   -2.02024433262965    1.77817924391834
H         1.08855541782063   -2.70996198291285    0.53865762551674
C        -1.20543008723266   -2.61446304087333    2.79804492996520
O        -0.70935657521346   -0.82230369033466    1.34087618751389
C        -0.68569918222162   -3.86222543277013    2.96245825820761
H        -1.99515932782411   -2.10749152835592    3.30993567422821
H        -0.95016495510421   -4.63275384006559    3.65630586181883
N         0.30698885334920   -4.01888267526337    2.05168516504830
C         1.13896541421618   -5.18306506823502    1.90089423745731
H         0.52472785604985   -6.05567542247364    1.67320053778555
H         1.84533817896923   -5.01553735377157    1.09066690168306
H         1.69211465194293   -5.36674391402846    2.82303389318430
41
 energy: -67.468388558339 gnorm: 0.000169032461 xtb: 6.3.2 (452493c)
C         0.93908785216238    0.43702924213418    1.54094448291452
C         2.00668962448555   -0.37376326475181    1.29525573494475
C         2.60668845314555   -0.47216271427949   -0.00047938447978
C         0.45236858776101    1.45156163384140    0.54391744366053
H         2.37423567506168   -1.02736181155537    2.07216687597752
O         3.37700702372571   -1.38090810971299   -0.31865122752250
C         2.31947569601258    0.68122676803130   -0.94279187979563
C         0.86371202753307    1.15712298655872   -0.90755160814402
C         0.73388456119314    2.44635094905108   -1.72611429947799
H         0.99365836692931    2.25883369135559   -2.76498675414930
H        -0.28807041722992    2.81465377237058   -1.68768544013543
H         1.39527723638087    3.21948180974447   -1.34186647625644
C        -0.04241747790730    0.08945865625973   -1.52040478959630
H         0.29212964193197   -0.16204063236206   -2.52421794335587
H        -0.03006895553196   -0.80592329413496   -0.90957985415355
H        -1.06655371725792    0.44887031082507   -1.57246030724750
H         2.60625431350114    0.38922871798650   -1.95485557060181
H        -0.63273425155915    1.51240510964798    0.62317567859860
H         0.87058573683326    2.41283463200697    0.85893397350795
H         2.97956078786244    1.49681794261638   -0.63187603942306
O         0.58159011098609    0.76860608455918    2.82752264597402
S         1.27050462063881    0.08255428926353    4.11554887175384
O         2.62936599547966    0.53379815140375    4.22867516609201
O         1.07252479605001   -1.33945764784598    4.11075623602339
C         0.23756643693678    0.85916678121698    5.35104482121738
H        -0.78965475290457    0.65794017932458    5.07946260851463
H         0.45472839222351    1.91832112343968    5.32773507962377
H         0.48401352399112    0.42722694419322    6.31287154144709
C         0.38986191142079   -2.88336836286981    1.33297175645763
N        -0.51632236228877   -2.01886610569524    1.78873557547560
H         1.08632421971700   -2.69932062123168    0.54188944252759
C        -1.20401868265612   -2.62104908204665    2.80519731160399
O        -0.71059537107176   -0.81840560872280    1.35973473786714
C        -0.68367119211178   -3.86992587949433    2.95966038639064
H        -1.99320744437334   -2.11864264961095    3.32240794242299
H        -0.94674987943945   -4.64567404234191    3.64823034845884
N         0.30760598125823   -4.01962329840513    2.04630014031162
C         1.13973780559225   -5.18216725834227    1.88443620255271
H         0.52586260462544   -6.05265065232707    1.64778166595404
H         1.84631412975359   -5.00630551413506    1.07613618581239
H         1.69265839114230   -5.37493222599426    2.80484371823693
41
 energy: -67.468509470421 gnorm: 0.000043653040 xtb: 6.3.2 (452493c)
C         0.94194587850143    0.43952963769974    1.53953851143911
C         2.00661783465617   -0.37338974002342    1.29238534990630
C         2.60510532695160   -0.47193322869662   -0.00474912963186
C         0.45188272871385    1.45260178895302    0.54297064723775
H         2.37398534525897   -1.02809743765036    2.06840706339427
O         3.37059704176880   -1.38332525738167   -0.32564974766584
C         2.32050101250649    0.68468817985402   -0.94348991372443
C         0.86454008629814    1.16023391796640   -0.90861746107760
C         0.73500603771613    2.45025483787046   -1.72590679961057
H         0.99566826709926    2.26383546473404   -2.76475038990810
H        -0.28709507256563    2.81821113532291   -1.68794444011093
H         1.39587571924116    3.22315385474388   -1.34030556453245
C        -0.04088331061717    0.09272380940881   -1.52285078316428
H         0.29770690530125   -0.16240287245481   -2.52438249618684
H        -0.03327776917496   -0.80081340903412   -0.90919921781043
H        -1.06403959797091    0.45407310844201   -1.58070180987641
H         2.60878652959814    0.39629651510456   -1.95613185353251
H        -0.63352376497555    1.50872612909847    0.62188267121460
H         0.86571798935454    2.41556947140230    0.85858797970748
H         2.97989539723714    1.49917188877787   -0.62835744097317
O         0.58239199383977    0.76726347522727    2.82569459669431
S         1.27155553495615    0.07950434617712    4.11307433407700
O         2.63061488190979    0.53030463708986    4.22565147273894
O         1.07348315134385   -1.34240423941424    4.10700402156419
C         0.23963663561069    0.85548752703210    5.34969976264805
H        -0.78784661781616    0.65397838061448    5.07932033589510
H         0.45653966895927    1.91469210884384    5.32622516431422
H         0.48738906344113    0.42351858312272    6.31118938842034
C         0.38758588854554   -2.88592286013191    1.33511449576060
N        -0.52002581732745   -2.02181959660361    1.78863916181639
H         1.08411521291820   -2.70238326252537    0.54398834227477
C        -1.20784963225060   -2.62345581666670    2.80541117790695
O        -0.71523708741253   -0.82257015769639    1.35795144211210
C        -0.68575874476931   -3.87133982239384    2.96260327254019
H        -1.99816788460243   -2.12124541520807    3.32110308670596
H        -0.94823296942289   -4.64607620312663    3.65252560247507
N         0.30632208431253   -4.02123537644929    2.05031013076550
C         1.14141415676220   -5.18211157464080    1.89208380224664
H         0.52994228056969   -6.05484949049587    1.65755435227237
H         1.84792304832679   -5.00666890477772    1.08363646180997
H         1.69440256721018   -5.37083313214325    2.81329941985015
41
 energy: -67.468628331231 gnorm: 0.000183341016 xtb: 6.3.2 (452493c)
C         0.94527663701169    0.44346914574036    1.53986701484907
C         2.00759208098044   -0.37124910629812    1.29268374434447
C         2.60497974917658   -0.47125289101704   -0.00551442190827
C         0.45307878344999    1.45473644053501    0.54297248559504
H         2.37453948438827   -1.02637916756084    2.06851123140797
O         3.36768536885383   -1.38447946804170   -0.32670920692585
C         2.32116342154948    0.68554666846382   -0.94393355944705
C         0.86530023380454    1.16163960570999   -0.90864253907323
C         0.73572289963757    2.45112002639665   -1.72672589706642
H         0.99563637236614    2.26386867594602   -2.76559971879617
H        -0.28629489106946    2.81925452482953   -1.68839071048791
H         1.39697837908655    3.22417279258182   -1.34211541395357
C        -0.04058659854006    0.09391119611422   -1.52175503461927
H         0.29798536794349   -0.16283322324571   -2.52286619222587
H        -0.03380705033870   -0.79867371509864   -0.90671951597688
H        -1.06351006541533    0.45580691608094   -1.58022558053732
H         2.60891273712182    0.39706060388986   -1.95669966317717
H        -0.63240053645895    1.50879761261705    0.62253652065058
H         0.86509086150917    2.41890517341649    0.85739051428927
H         2.98100437587564    1.49966898697827   -0.62886021401750
O         0.58193135390087    0.76778965274660    2.82548779543589
S         1.27144094315255    0.07989157393936    4.11294673423717
O         2.63048675640119    0.53097879622689    4.22466404818916
O         1.07365476151619   -1.34200735365783    4.10674380116861
C         0.23988703133687    0.85570308638455    5.34993025145596