139
 energy: -301.120704756585 gnorm: 0.664288917513 xtb: 6.7.1 (edcfbbe)
C            0.58270263800000       -0.46975734100000       -5.80126151100000
C            1.36322300100000        0.67371312200000       -5.51668596300000
C            2.62613147500000        0.23694627000000       -5.05623305600000
C            2.62613147500000       -1.17646095200000       -5.05623305600000
C            1.36322300100000       -1.61322780500000       -5.51668596300000
C            0.75602266800000       -2.76353514900000       -4.94242022000000
C           -0.62808911800000       -2.76353514900000       -4.65614318100000
C           -1.41327625800000       -1.61322780500000       -4.94242021800000
C           -0.80968483700000       -0.46975734100000       -5.51327280300000
C           -1.41327625800000        0.67371312200000       -4.94242021800000
C           -0.62808911800000        1.82402046700000       -4.65614318100000
C            0.75602266800000        1.82402046700000       -4.94242022000000
C            1.41533972200000        2.53072407200000       -3.91111472900000
C            2.68579920500000        2.09134576800000       -3.44790875200000
C            3.28939063000000        0.94787530700000       -4.01876133600000
C            3.94870767600000        0.24117169300000       -2.98745584900000
C            3.94870767600000       -1.18068637500000       -2.98745584900000
C            3.28939063000000       -1.88738999000000       -4.01876133600000
C            2.68579920500000       -3.03086045100000       -3.44790875200000
C            1.41533972200000       -3.47023875400000       -3.91111472900000
C            0.43870828600000       -3.90700560200000       -2.98745584500000
C           -0.82420019000000       -3.47023875400000       -3.44790875000000
C           -1.80667096700000       -3.03086045100000       -2.51872725700000
C           -2.58719133200000       -1.88738999000000       -2.80330280100000
C           -2.38990769200000       -1.17646095200000       -4.01876133200000
C           -2.38990769200000        0.23694627000000       -4.01876133200000
C           -2.58719133200000        0.94787530700000       -2.80330280100000
C           -1.80667096700000        2.09134576800000       -2.51872725700000
C           -0.82420019000000        2.53072407200000       -3.44790875000000
C            0.43870828600000        2.96749091900000       -2.98745584500000
C            0.72669699200000        2.96749092800000       -1.59506837400000
C            1.98960546600000        2.53072407200000       -1.13461547400000
C            2.97207623600000        2.09134576300000       -2.06379696700000
C            3.75259659600000        0.94787530000000       -1.77922142300000
C            3.55531296800000        0.23694626900000       -0.56376289100000
C            3.55531296800000       -1.17646095100000       -0.56376289100000
C            3.75259659600000       -1.88738998200000       -1.77922142300000
C            2.97207623600000       -3.03086044500000       -2.06379696700000
C            1.98960546600000       -3.47023875500000       -1.13461547400000
C            0.72669699200000       -3.90700561000000       -1.59506837400000
C           -0.24993444400000       -3.47023875500000       -0.67140949500000
C           -1.52039392100000       -3.03086044500000       -1.13461547400000
C           -2.12398534000000       -1.88738998200000       -0.56376289300000
C           -2.78330239900000       -1.18068637500000       -1.59506837600000
C           -2.78330239900000        0.24117169300000       -1.59506837600000
C           -2.12398534000000        0.94787530000000       -0.56376289300000
C           -1.52039392100000        2.09134576300000       -1.13461547400000
C           -0.24993444400000        2.53072407200000       -0.67140949500000
C            0.40938260800000        1.82402045600000        0.35989598500000
C            1.79349439000000        1.82402045600000        0.07361894700000
C            2.57868153000000        0.67371311900000        0.35989598600000
C            1.97509010700000       -0.46975734100000        0.93074856600000
C            2.57868153000000       -1.61322780200000        0.35989598600000
C            1.79349439000000       -2.76353513800000        0.07361894700000
C            0.40938260800000       -2.76353513800000        0.35989598500000
C           -0.19781772200000       -1.61322780200000        0.93416173100000
C           -1.46072619700000       -1.17646095100000        0.47370883300000
C           -1.46072619700000        0.23694626900000        0.47370883300000
C           -0.19781772200000        0.67371311900000        0.93416173100000
C            0.58270264000000       -0.46975734100000        1.21873727100000
C           -4.19221925800000        1.60576290000000       -1.49167106700000
C           -5.05894387900000        1.07109509000000       -0.51154926700000
C           -6.29173219500000        0.77217048600000       -1.13492477600000
C           -6.18691265500000        1.12209273000000       -2.50031382900000
C           -4.88934230000000        1.63728117500000       -2.72079516200000
C           -4.69866111700000        2.72320832200000       -3.61861657700000
C           -3.81199021100000        3.77116296300000       -3.28197767100000
C           -3.11069903100000        3.73945624200000       -2.04550456700000
C           -3.30024689200000        2.65998332700000       -1.15301937700000
C           -3.28030060900000        3.17327015700000        0.16374132900000
C           -4.15220742600000        2.63540553200000        1.14972333800000
C           -5.03887833200000        1.58745089000000        0.81308443200000
C           -6.25172036300000        1.80181311500000        1.50646962200000
C           -7.49187959300000        1.50110121400000        0.87936691500000
C           -7.51182588100000        0.98781438300000       -0.43739378900000
C           -8.61984836500000        1.55209885300000       -1.10939764800000
C           -8.51440210300000        1.90411330400000       -2.48295044200000
C           -7.30156007800000        1.68975107900000       -3.17633564100000
C           -7.11201221300000        2.76922399400000       -4.06882082800000
C           -5.80668360900000        3.28749278700000       -4.29062042800000
C           -5.60480826500000        4.68419440700000       -4.36930274200000
C           -4.37201994900000        4.98311901500000       -3.74592723700000
C           -4.23410694900000        6.17061470400000       -2.97617769200000
C           -3.53698390600000        6.13909643400000       -1.74705359800000
C           -2.97360572800000        4.91989402200000       -1.28033004300000
C           -3.07842526700000        4.56997177800000        0.08505900900000
C           -3.74724970800000        5.43715973800000        0.99188825400000
C           -4.61397432900000        4.90249192500000        1.97201005100000
C           -4.81705670200000        3.49743934200000        2.05116281300000
C           -6.11462705600000        2.98225089600000        2.27164414100000
C           -7.21687328800000        3.86903468300000        2.41429098700000
C           -8.44966159900000        3.57011007500000        1.79091547400000
C           -8.58757459400000        2.38261439100000        1.02116592400000
C           -9.28469763200000        2.41413266500000       -0.20795817000000
C           -9.84807582100000        3.63333506900000       -0.67468172200000
C           -9.74325628200000        3.98325731200000       -2.04007077200000
C           -9.07443183100000        3.11606935700000       -2.94690000800000
C           -8.20770721500000        3.65073716800000       -3.92702180800000
C           -8.00462484600000        5.05578974800000       -4.00617457600000
C           -6.70705449600000        5.57097819800000       -4.22665591200000
C           -6.56996118700000        6.75141597400000       -3.46148138600000
C           -5.32980195900000        7.05212786700000       -2.83437867500000
C           -5.30985567500000        7.56541469300000       -1.51761797100000
C           -4.20183318300000        7.00113023500000       -0.84561411600000
C           -4.30727944500000        6.64911578500000        0.52793867800000
C           -5.52012147600000        6.86347800000000        1.22132386700000
C           -5.70966933900000        5.78400509000000        2.11380905700000
C           -7.01499794000000        5.26573630100000        2.33560866400000
C           -8.12302042400000        5.83002076200000        1.66360480100000
C           -9.00969132700000        4.78206612300000        1.32696589700000
C           -9.71098250900000        4.81377284500000        0.09049280000000
C           -9.52143464200000        5.89324575600000       -0.80199238700000
C           -9.54138093100000        5.37995892900000       -2.11875309000000
C           -8.66947411400000        5.91782355000000       -3.10473509200000
C           -7.78280321100000        6.96577818900000       -2.76809618700000
C           -7.76273766600000        7.48213399100000       -1.44346249600000
C           -6.52994935500000        7.78105860300000       -0.82008698600000
C           -6.63476889500000        7.43113636000000        0.54530206400000
C           -7.93233924400000        6.91594790700000        0.76578339400000
C           -8.62946228200000        6.94746617700000       -0.46334069900000
O          -10.04287039800000        7.21880594200000       -0.51079836500000
O           -6.08481665600000        5.45220577100000       -5.51983539700000
O           -6.90752957900000        0.35887894700000       -3.55989702300000
O           -9.54537568900000        0.92277470300000       -2.26462038300000
O          -10.72421461700000        2.41990546900000       -0.17111358200000
O           -7.02127989300000        0.58738208000000        1.88795665700000
O           -8.58814717000000        4.17434769200000       -5.21337225000000
O           -2.58444804900000       -3.82539108800000       -0.57774038100000
O           -0.23794193200000       -4.84254908400000       -0.23526669700000
H           -0.24177529200000       -5.31245981900000        0.60185289200000
H           -2.95364616000000       -4.70562669800000       -0.68010261300000
C            1.36549684900000       -0.61329053800000       -2.22281821700000
H            1.75275830000000        0.13422904700000       -1.54632502600000
H            1.96680315000000       -0.73075126200000       -3.11221897700000
H            1.47581832700000       -1.60252351700000       -1.80371526500000
C           -0.11337120600000       -0.60014572000000       -2.65220905300000
H           -0.35572173600000       -1.41506475900000       -3.31822195200000
H           -0.49946185500000        0.14322933300000       -3.33391833200000
H           -0.61595414200000       -0.51066377300000       -1.70047202400000
139
 energy: -301.386069104082 gnorm: 0.504989873677 xtb: 6.7.1 (edcfbbe)
C            0.57193057166483       -0.46975929942205       -5.80546884290866
C            1.35956101206031        0.68254071935242       -5.51824514070837
C            2.63667434517804        0.24187057920430       -5.05585871098044
C            2.63844771387690       -1.18380746356033       -5.05890130706707
C            1.36036733875241       -1.62347034040242       -5.51765661906957
C            0.76000970851427       -2.76094958166736       -4.95306530393698
C           -0.64003921709061       -2.76772560941971       -4.67347624778006
C           -1.42135293376742       -1.62571285113693       -4.95814619423857
C           -0.80657369243603       -0.47064594904360       -5.52904256090255
C           -1.41714265814397        0.68671988291471       -4.95873405251245
C           -0.63587370188021        1.82454289380482       -4.67168708293067
C            0.76168890740684        1.81950632828332       -4.95314849647232
C            1.42717677382845        2.52904256331884       -3.91104580514787
C            2.67839576493772        2.08502947065327       -3.45125557049560
C            3.29428453030331        0.94224392128482       -4.02988449639240
C            3.96489363953290        0.23385882349121       -2.98868647297712
C            3.96933455824035       -1.17453642985751       -2.98877094175421
C            3.29993953700579       -1.88665299586564       -4.03286029554249
C            2.68520174866274       -3.02836890975509       -3.45382778656517
C            1.42879078253451       -3.47260896510511       -3.91357416372436
C            0.44870411787101       -3.91026306207110       -2.98677897634165
C           -0.83539253908967       -3.47147838973008       -3.45133631353696
C           -1.80266855350623       -3.03059960428361       -2.54678731058658
C           -2.59314423479563       -1.88547093136771       -2.81840533754437
C           -2.40716816752555       -1.18538257676257       -4.02731511441500
C           -2.40171707515241        0.24029640541049       -4.02801933924773
C           -2.56673937826306        0.93442006331479       -2.82949211777565
C           -1.78186065548631        2.08347166074013       -2.54348336451870
C           -0.82439473672528        2.53241655772229       -3.45232777010614
C            0.44388297600747        2.97205256357005       -2.98068688986206
C            0.72241229157620        2.97127533566518       -1.60272496973255
C            1.99912550443954        2.53560384609243       -1.13762341206544
C            2.97595123628765        2.11287786437834       -2.05686817739930
C            3.76419103885740        0.95165698085730       -1.76910954993552
C            3.57159774746990        0.24519382323809       -0.56568975345991
C            3.56955311988245       -1.18390147418774       -0.56773395423001
C            3.76744431687056       -1.89037353354753       -1.76932672761206
C            2.98727329915318       -3.05715672688622       -2.06064248461624
C            2.00989553931001       -3.47488915267831       -1.14147790583800
C            0.74667860371219       -3.88976919978651       -1.62716390219248
C           -0.25535227450018       -3.51770430244772       -0.64605314299853
C           -1.56213831885121       -3.07088697979086       -1.11459995166347
C           -2.11662235095795       -1.84975375697505       -0.55837650139272
C           -2.79572208476264       -1.16998031595782       -1.59611392600035
C           -2.79230880464266        0.23285991283785       -1.59534011763809
C           -2.09344797033171        0.91229345687400       -0.55636375528423
C           -1.52081387680323        2.08322337526390       -1.12932131164936
C           -0.26320451277642        2.53235494126366       -0.67103474034163
C            0.40508672079273        1.81923313734806        0.36789476101472
C            1.80238306684116        1.82163199694640        0.08023141387515
C            2.58120874738386        0.68467463961956        0.36566899169007
C            1.97286724182822       -0.46934057913853        0.93948608361719
C            2.58440018339599       -1.62087999646494        0.36613549667624
C            1.80668177398091       -2.75605418546680        0.08040677029239
C            0.42021549769702       -2.73762578042336        0.37239846452749
C           -0.18622709213779       -1.61846466709333        0.93557789038429
C           -1.47031723421326       -1.17855333872443        0.47483237388357
C           -1.46141706331539        0.23667540519361        0.47673620835373
C           -0.19080283522872        0.68247208490458        0.93831041967042
C            0.59579968420105       -0.46950721755044        1.22657256771079
C           -4.19201160629306        1.61343159755765       -1.48190467665873
C           -5.06409548008710        1.07990063257160       -0.49574385400296
C           -6.30310900661369        0.76832939616619       -1.11798546564146
C           -6.17943915350827        1.08140919379954       -2.51613424497706
C           -4.88295839686612        1.64941374774828       -2.72545620727683
C           -4.70000963908173        2.71404900770791       -3.61237752642512
C           -3.81220740537326        3.77878784115290       -3.27426754141548
C           -3.12792154050767        3.75959658443190       -2.05156946303995
C           -3.30379305891663        2.67396927016782       -1.14041327634166
C           -3.29486230901398        3.18800249856757        0.17966079520019
C           -4.14603148895475        2.64122645868577        1.14777857703505
C           -5.02183465637344        1.58171546524526        0.80772846302478
C           -6.23793152038537        1.77265039364768        1.53910610642058
C           -7.50465162595677        1.46638506933413        0.89473631763772
C           -7.50086547259242        0.97075381007105       -0.45390803366471
C           -8.64261149091062        1.51841127244625       -1.11904656044870
C           -8.54586830626767        1.88745908412447       -2.50496866695099
C           -7.30964637519349        1.66035136111491       -3.21141602180143
C           -7.08684644139101        2.77023578621742       -4.07500214615661
C           -5.81510876076245        3.26974084835144       -4.28878945825261
C           -5.58919651923212        4.68735779330486       -4.40932009158334
C           -4.35532217318152        4.99458227756700       -3.74038482378542
C           -4.22815759136252        6.16561520674318       -2.98281705641413
C           -3.52660215001338        6.13930218297534       -1.74682703296942
C           -2.97240158745746        4.93773989935355       -1.28230666939757
C           -3.08057900124770        4.58573342071019        0.09514283879584
C           -3.73777567073406        5.43770705371932        0.99223766755566
C           -4.61229304473873        4.89767652341872        1.97712573135446
C           -4.81625074609961        3.50870254074232        2.05581165758303
C           -6.11736976766160        2.99367317995684        2.28856667027466
C           -7.20721359752746        3.86330167961446        2.42036595165533
C           -8.45122987318810        3.55788234825064        1.78739891862417
C           -8.58917190377455        2.39144369749900        1.04227905632811
C           -9.31567774300459        2.38933128947967       -0.19035355225048
C           -9.88887621596360        3.62774264283907       -0.66932955237142
C           -9.73855461550312        3.98063255928375       -2.05870861558113
C           -9.09038783032334        3.13715990076349       -2.94339050069965
C           -8.22401359935603        3.64155984109471       -3.96114566778400
C           -8.02999077264864        5.07037779520018       -4.04447374606022
C           -6.70889320243312        5.59625238687304       -4.26380102479500
C           -6.56161358609595        6.77067036444133       -3.45095860837560
C           -5.33719678081807        7.05629556042171       -2.83732714864255
C           -5.31325261521127        7.57374884997334       -1.51488456978201
C           -4.19847701539341        7.00486088710913       -0.83588862682502
C           -4.30277783496398        6.65738183378775        0.52072631372094
C           -5.52420397115022        6.87098100145363        1.22191616766502
C           -5.71608110527788        5.78413414494428        2.12000364396607
C           -7.00706327208327        5.27066664685598        2.34022670430279
C           -8.12129975021273        5.84108013087786        1.66210198512073
C           -9.01912055396984        4.78245028122204        1.31778485704146
C           -9.71607085765898        4.81213916097124        0.11250521142502
C           -9.55905307827777        5.90773429400562       -0.80120174532264
C           -9.53965636799820        5.38103027124129       -2.14003482904297
C           -8.68634203763501        5.92188520691117       -3.10085797016568
C           -7.77930460137154        6.97152386882425       -2.75593849670660
C           -7.75198008830352        7.49219145691219       -1.45645068269083
C           -6.52063879290340        7.78289383604820       -0.82556149739946
C           -6.62571636383690        7.42835907301785        0.55327065046025
C           -7.92600271021316        6.91512883978256        0.78709509036541
C           -8.64741342379242        6.98624692686113       -0.45382778237788
O          -10.04831279417864        7.21851637090888       -0.50950197399303
O           -6.07713677753125        5.45396489385651       -5.52305294476869
O           -6.89547046765000        0.35206728996683       -3.55438345448255
O           -9.52001046982434        0.90194618155863       -2.22877437574989
O          -10.72537930138260        2.45278096269378       -0.18201368629395
O           -7.01951712903166        0.60108135017093        1.90732462448616
O           -8.60644921298983        4.22138425244550       -5.19291876344097
O           -2.62683430450812       -3.84284762866243       -0.53218635610599
O           -0.25643211538140       -4.90416663049772       -0.24342339703917
H           -0.25113474096509       -5.30201266454256        0.62830994392579
H           -2.94105250809496       -4.73122173324716       -0.69819870486406
C            1.34663250804177       -0.62143937880335       -2.23634778470696
H            1.71660591253968        0.13054713317808       -1.56506376838428
H            1.94814790766732       -0.71015470409784       -3.11203299944622
H            1.46108442036625       -1.59128380263468       -1.79278937711234
C           -0.10111601426632       -0.58593032066502       -2.63846604665394
H           -0.33091129296507       -1.41875562827191       -3.27526851207579
H           -0.45949691540901        0.17005881137813       -3.30572631286862
H           -0.62176407344278       -0.51857113387408       -1.70391631951007
139
 energy: -301.486684280645 gnorm: 1.938851481147 xtb: 6.7.1 (edcfbbe)
C            0.56023695471316       -0.46942885900427       -5.80908467479481
C            1.35571347650923        0.69316584175470       -5.51917047798632
C            2.64774085938063        0.24852834686914       -5.05325772576967
C            2.65131836559558       -1.19288425317417       -5.05911687374020
C            1.35757668609033       -1.63522434003223       -5.51802997842533
C            0.76597751890754       -2.75645818065071       -4.96406189977321
C           -0.65203445608999       -2.76926630450828       -4.68985342579550
C           -1.42727495525729       -1.63945190197448       -4.97205183089489
C           -0.80032169143032       -0.47203314169443       -5.54409373697432
C           -1.41918424775545        0.70014876311722       -4.97517638087734
C           -0.64379866307554        1.82143153446042       -4.68880468760595
C            0.76895487998384        1.81498348330539       -4.96444715729530
C            1.44117190056443        2.53260503983257       -3.91104651746003
C            2.67591253162956        2.10114426555731       -3.45804104097687
C            3.29650088169905        0.94212716811378       -4.04153602903874
C            3.97979235474970        0.22461868655443       -2.99139937077031
C            3.98833930727945       -1.16606746509052       -2.99180523716709
C            3.30774054644811       -1.89105139344124       -4.04747475744082
C            2.68941182551790       -3.04871094246888       -3.46308124838283
C            1.44422612945634       -3.47968304521863       -3.91722742804974
C            0.45871707075217       -3.91256507564153       -2.98257252692833
C           -0.85033804902359       -3.46963980243922       -3.45200635466327
C           -1.79403327552973       -3.02552837557345       -2.57357938881529
C           -2.59784750501246       -1.88286046472192       -2.83423915497320
C           -2.42228664995871       -1.19628658404140       -4.03344133860642
C           -2.41388982337004        0.24405636923100       -4.03621407598503
C           -2.54385546209595        0.91722861702942       -2.85608639762625
C           -1.74539616604774        2.05774817359574       -2.57109632842512
C           -0.82498505898754        2.53115941506870       -3.45627080078393
C            0.45035584473774        2.97798071085985       -2.97218172261004
C            0.71918880958304        2.97496656211153       -1.61236764100341
C            2.00952865876122        2.53387430201339       -1.14283798428522
C            2.97114005339097        2.11196012785124       -2.04948405157337
C            3.77642279837903        0.94729661891807       -1.75792166937774
C            3.58725697086366        0.25329474546985       -0.56965547288951
C            3.58534790463037       -1.19091255618437       -0.57329270246306
C            3.78391021543624       -1.88510096490723       -1.75837749601030
C            2.99411133516319       -3.06026232633928       -2.05741917599975
C            2.02890129476074       -3.47187249782769       -1.15050906477753
C            0.76714709474976       -3.85762025161752       -1.66596395996315
C           -0.26206217451389       -3.58615020432896       -0.61321330309224
C           -1.61687170409052       -3.13070046624112       -1.08760320329938
C           -2.09751754606559       -1.81007690212148       -0.55770039838093
C           -2.80432514122560       -1.15968944369244       -1.59810458147651
C           -2.81730601471052        0.23826999512487       -1.59217573590603
C           -2.05817802655254        0.87977760724826       -0.55078517836217
C           -1.55658971984478        2.10183294300277       -1.12302139739634
C           -0.27663874954560        2.53774871439887       -0.67126524214127
C            0.40002844905577        1.81342089438251        0.37573960664631
C            1.81227587117005        1.81749262922404        0.08789317442638
C            2.58255273807642        0.69679856824774        0.37124524886857
C            1.96899612391389       -0.46915222706421        0.94816586480303
C            2.58899482766889       -1.62933298820218        0.37185724919786
C            1.81857921466032       -2.74568573660392        0.08739468105398
C            0.42786448620660       -2.71598704900255        0.38324492360626
C           -0.17291032809318       -1.63024767986309        0.93538326978922
C           -1.47933467369021       -1.18511722947829        0.47048476940357
C           -1.46561876894386        0.23997364829699        0.48078100788316
C           -0.18237357376788        0.69407993195594        0.94232386954558
C            0.60997142643056       -0.46985657257555        1.23196988491278
C           -4.18016951257770        1.60841149281124       -1.47207203707884
C           -5.07028785825940        1.09193860663143       -0.47750077184960
C           -6.31766168099605        0.76618632621257       -1.10044823642941
C           -6.17127820442241        1.02801859011108       -2.53740716535491
C           -4.87930284249696        1.66606300644040       -2.72986436188622
C           -4.70086080340353        2.70279827883804       -3.60368769795623
C           -3.81152734973074        3.78617305625066       -3.26344889502085
C           -3.15186043336585        3.78075179059149       -2.05559793617889
C           -3.27974576716365        2.67719153694840       -1.12658950563207
C           -3.31219415218728        3.20266747447659        0.19615729906789
C           -4.13873459845574        2.64814938057322        1.14596532283556
C           -5.00598477372710        1.57680985346854        0.80070335642921
C           -6.22316482101421        1.73332849933544        1.58065980551123
C           -7.52040700798356        1.42421774634050        0.91103553059696
C           -7.48728396728006        0.95696206838114       -0.47421265355849
C           -8.67851715202864        1.47263439593395       -1.13367284334078
C           -8.58403561133042        1.86913384195953       -2.53247500748095
C           -7.32197467084766        1.62595836820974       -3.25181793456316
C           -7.05769388100029        2.77483636151611       -4.07636817036740
C           -5.82606347112768        3.25363651442547       -4.28578183777795
C           -5.57150201457652        4.69217588436013       -4.46074096444474
C           -4.34074319524442        5.00755170827686       -3.73264343014813
C           -4.22207969799407        6.16018855215689       -2.99136673886632
C           -3.51604770399345        6.13941224294652       -1.74630073484076
C           -2.97184002224797        4.95695170654210       -1.28440436573914
C           -3.08164585598852        4.60311001588796        0.10690169858172
C           -3.72667877274045        5.43813242467224        0.99195771091017
C           -4.61025151546705        4.89178124134320        1.98305214216326
C           -4.81559037842923        3.52201580523418        2.06016392221867
C           -6.12292740758193        3.00582195824405        2.30398932819242
C           -7.19578816433857        3.85611248915750        2.42668417173980
C           -8.45319560687845        3.54301768144506        1.78287438684703
C           -8.58580967214802        2.40472056279213        1.06144514289179
C           -9.35121208228415        2.35767584593370       -0.17052917396983
C           -9.94596644565942        3.61558070158795       -0.66246836427973
C           -9.73095702389641        3.97550942960250       -2.07706225783121
C           -9.10254042513824        3.16271396590957       -2.93594203669704
C           -8.24038269108185        3.62751481021373       -4.00173737608441
C           -8.06197522643782        5.08599252664008       -4.10029600516044
C           -6.71184458153306        5.62588035519736       -4.30964211783753
C           -6.55222469644229        6.78700698004468       -3.43728036861932
C           -5.34633784723768        7.06073994795243       -2.84123333363217
C           -5.31753201476132        7.58211943173681       -1.51100356786326