      -----------------------------------------------------------      
     |                   =====================                   |     
     |                           x T B                           |     
     |                   =====================                   |     
     |                         S. Grimme                         |     
     |          Mulliken Center for Theoretical Chemistry        |     
     |                    University of Bonn                     |     
      -----------------------------------------------------------      

   * xtb version 6.7.1 (edcfbbe) compiled by 'albert@albert-system' on 2024-07-22

   xtb is free software: you can redistribute it and/or modify it under
   the terms of the GNU Lesser General Public License as published by
   the Free Software Foundation, either version 3 of the License, or
   (at your option) any later version.
   
   xtb is distributed in the hope that it will be useful,
   but WITHOUT ANY WARRANTY; without even the implied warranty of
   MERCHANTABILITY or FITNESS FOR A PARTICULAR PURPOSE.  See the
   GNU Lesser General Public License for more details.
   
   Cite this work as:
   * C. Bannwarth, E. Caldeweyher, S. Ehlert, A. Hansen, P. Pracht,
     J. Seibert, S. Spicher, S. Grimme, WIREs Comput. Mol. Sci., 2020, 11,
     e01493. DOI: 10.1002/wcms.1493
   
   for GFN2-xTB:
   * C. Bannwarth, S. Ehlert and S. Grimme., J. Chem. Theory Comput., 2019,
     15, 1652-1671. DOI: 10.1021/acs.jctc.8b01176
   for GFN1-xTB:
   * S. Grimme, C. Bannwarth, P. Shushkov, J. Chem. Theory Comput., 2017,
     13, 1989-2009. DOI: 10.1021/acs.jctc.7b00118
   for GFN0-xTB:
   * P. Pracht, E. Caldeweyher, S. Ehlert, S. Grimme, ChemRxiv, 2019, preprint.
     DOI: 10.26434/chemrxiv.8326202.v1
   for GFN-FF:
   * S. Spicher and S. Grimme, Angew. Chem. Int. Ed., 2020, 59, 15665-15673.
     DOI: 10.1002/anie.202004239
   
   for ALPB and GBSA implicit solvation:
   * S. Ehlert, M. Stahn, S. Spicher, S. Grimme, J. Chem. Theory Comput.,
     2021, 17, 4250-4261. DOI: 10.1021/acs.jctc.1c00471
   
   for ddCOSMO and CPCM-X implicit solvation:
   * M. Stahn, S. Ehlert, S. Grimme, J. Phys. Chem. A,
     2023, XX, XXXX-XXXX. DOI: 10.1021/acs.jpca.3c04382
   
   for DFT-D4:
   * E. Caldeweyher, C. Bannwarth and S. Grimme, J. Chem. Phys., 2017,
     147, 034112. DOI: 10.1063/1.4993215
   * E. Caldeweyher, S. Ehlert, A. Hansen, H. Neugebauer, S. Spicher,
     C. Bannwarth and S. Grimme, J. Chem. Phys., 2019, 150, 154122.
     DOI: 10.1063/1.5090222
   * E. Caldeweyher, J.-M. Mewes, S. Ehlert and S. Grimme, Phys. Chem. Chem. Phys.
     2020, 22, 8499-8512. DOI: 10.1039/D0CP00502A
   
   for sTDA-xTB:
   * S. Grimme and C. Bannwarth, J. Chem. Phys., 2016, 145, 054103.
     DOI: 10.1063/1.4959605
   
   in the mass-spec context:
   * V. Asgeirsson, C. Bauer and S. Grimme, Chem. Sci., 2017, 8, 4879.
     DOI: 10.1039/c7sc00601b
   * J. Koopman and S. Grimme, ACS Omega 2019, 4, 12, 15120-15133.
     DOI: 10.1021/acsomega.9b02011
   
   for metadynamics refer to:
   * S. Grimme, J. Chem. Theory Comput., 2019, 155, 2847-2862
     DOI: 10.1021/acs.jctc.9b00143
   
   for SPH calculations refer to:
   * S. Spicher and S. Grimme, J. Chem. Theory Comput., 2021, 17, 1701-1714
     DOI: 10.1021/acs.jctc.0c01306
   
   for ONIOM refer to:
   * C. Plett, A. Katbashev, S. Ehlert, S. Grimme, M. Bursch,
     Phys. Chem. Chem. Phys., 2023, 25, 17860-17868. DOI: 10.1039/D3CP02178E
   
   for DIPRO refer to:
   * J. Kohn, N. Gildemeister, S. Grimme, D. Fazzi, A. Hansen,
     J. Chem. Phys., 2023, just accepted.
   
   for PTB refer to:
   * S. Grimme, M. Mueller, A. Hansen, J. Chem. Phys., 2023, 158, 124111.
     DOI: 10.1063/5.0137838
   
   with help from (in alphabetical order)
   P. Atkinson, C. Bannwarth, F. Bohle, G. Brandenburg, E. Caldeweyher
   M. Checinski, S. Dohm, S. Ehlert, S. Ehrlich, I. Gerasimov, C. Hölzer
   A. Katbashev, J. Kohn, J. Koopman, C. Lavigne, S. Lehtola, F. März, M. Müller,
   F. Musil, H. Neugebauer, J. Pisarek, C. Plett, P. Pracht, F. Pultar,
   J. Seibert, P. Shushkov, S. Spicher, M. Stahn, M. Steiner, T. Strunk,
   J. Stückrath, T. Rose, and J. Unsleber
   
 * started run on 2025/02/16 at 23:47:49.307     
   ID    Z sym.   atoms
    1    6 C      1-120, 132, 136
    2    8 O      121-129
    3    1 H      130, 131, 133-135, 137-139

           -------------------------------------------------
          |                Calculation Setup                |
           -------------------------------------------------

          program call               : xtb xtbopt.xyz --chrg 0 --acc 0.05 --grad
          coordinate file            : xtbopt.xyz
          omp threads                :                    16


molecular fragmentation (1/2 indicates fragments):
111111111111111111111111111111111111111111111111111111111111111111111111
1111111111111111111111111111111111111111111111111111111111122222222
# atoms in fragment 1/2:   131     8
 fragment masses (1/2) :     1587.30       30.07
CMA distance (Bohr)    :   8.881
constraining FC (au)   :  0.0500

           -------------------------------------------------
          |                 G F N 2 - x T B                 |
           -------------------------------------------------

        Reference                      10.1021/acs.jctc.8b01176
      * Hamiltonian:
        H0-scaling (s, p, d)           1.850000    2.230000    2.230000
        zeta-weighting                 0.500000
      * Dispersion:
        s8                             2.700000
        a1                             0.520000
        a2                             5.000000
        s9                             5.000000
      * Repulsion:
        kExp                           1.500000    1.000000
        rExp                           1.000000
      * Coulomb:
        alpha                          2.000000
        third order                    shell-resolved
        anisotropic                    true
        a3                             3.000000
        a5                             4.000000
        cn-shift                       1.200000
        cn-exp                         4.000000
        max-rad                        5.000000

q/qsh data taken from xtbrestart
CAMM data taken from xtbrestart

          ...................................................
          :                      SETUP                      :
          :.................................................:
          :  # basis functions                 532          :
          :  # atomic orbitals                 532          :
          :  # shells                          270          :
          :  # electrons                       550          :
          :  max. iterations                   250          :
          :  Hamiltonian                  GFN2-xTB          :
          :  restarted?                       true          :
          :  GBSA solvation                  false          :
          :  PC potential                    false          :
          :  electronic temp.          300.0000000     K    :
          :  accuracy                    0.0500000          :
          :  -> integral cutoff          0.3801030E+02      :
          :  -> integral neglect         0.5000000E-09      :
          :  -> SCF convergence          0.5000000E-07 Eh   :
          :  -> wf. convergence          0.5000000E-05 e    :
          :  Broyden damping             0.4000000          :
          :  net charge                          0          :
          :  unpaired electrons                  0          :
          ...................................................

 iter      E             dE          RMSdq      gap      omega  full diag
   1   -306.6427748 -0.306643E+03  0.736E-05    0.33       0.0  T
   2   -306.6427748  0.104120E-07  0.198E-04    0.33      42.9  T
   3   -306.6427748 -0.111698E-07  0.329E-05    0.33     257.6  T
   4   -306.6427748 -0.679279E-10  0.127E-05    0.33     670.0  T

   *** convergence criteria satisfied after 4 iterations ***

         #    Occupation            Energy/Eh            Energy/eV
      -------------------------------------------------------------
         1        2.0000           -0.7767682             -21.1369
       ...           ...                  ...                  ...
       269        2.0000           -0.4164521             -11.3322
       270        2.0000           -0.4127458             -11.2314
       271        2.0000           -0.4097956             -11.1511
       272        2.0000           -0.4070386             -11.0761
       273        2.0000           -0.4026860             -10.9576
       274        2.0000           -0.4009675             -10.9109
       275        1.9965           -0.3742376             -10.1835 (HOMO)
       276        0.0035           -0.3621633              -9.8550 (LUMO)
       277                         -0.3445978              -9.3770
       278                         -0.3384492              -9.2097
       279                         -0.3362910              -9.1509
       280                         -0.3308082              -9.0017
       ...                                ...                  ...
       532                          0.6693253              18.2133
      -------------------------------------------------------------
                  HL-Gap            0.0120744 Eh            0.3286 eV
             Fermi-level           -0.3682004 Eh          -10.0192 eV

 SCC (total)                   0 d,  0 h,  0 min,  0.377 sec
 SCC setup                      ...        0 min,  0.004 sec (  0.995%)
 Dispersion                     ...        0 min,  0.014 sec (  3.580%)
 classical contributions        ...        0 min,  0.000 sec (  0.045%)
 integral evaluation            ...        0 min,  0.047 sec ( 12.413%)
 iterations                     ...        0 min,  0.215 sec ( 56.921%)
 molecular gradient             ...        0 min,  0.092 sec ( 24.378%)
 printout                       ...        0 min,  0.006 sec (  1.651%)

         :::::::::::::::::::::::::::::::::::::::::::::::::::::
         ::                     SUMMARY                     ::
         :::::::::::::::::::::::::::::::::::::::::::::::::::::
         :: total energy            -301.730361200170 Eh    ::
         :: gradient norm              0.000197184650 Eh/a0 ::
         :: HOMO-LUMO gap              0.328560127149 eV    ::
         ::.................................................::
         :: SCC energy              -306.592592114094 Eh    ::
         :: -> isotropic ES            0.155153839164 Eh    ::
         :: -> anisotropic ES          0.010961388169 Eh    ::
         :: -> anisotropic XC          0.030402023755 Eh    ::
         :: -> dispersion             -0.414286437359 Eh    ::
         :: repulsion energy           4.862230913924 Eh    ::
         :: add. restraining           0.000000000000 Eh    ::
         :: total charge              -0.000000000033 e     ::
         :::::::::::::::::::::::::::::::::::::::::::::::::::::

           -------------------------------------------------
          |                Property Printout                |
           -------------------------------------------------

    * Orbital Energies and Occupations

         #    Occupation            Energy/Eh            Energy/eV
      -------------------------------------------------------------
         1        2.0000           -0.7767682             -21.1369
       ...           ...                  ...                  ...
       263        2.0000           -0.4323417             -11.7646
       264        2.0000           -0.4289395             -11.6720
       265        2.0000           -0.4272518             -11.6261
       266        2.0000           -0.4242011             -11.5431
       267        2.0000           -0.4207540             -11.4493
       268        2.0000           -0.4174366             -11.3590
       269        2.0000           -0.4164521             -11.3322
       270        2.0000           -0.4127458             -11.2314
       271        2.0000           -0.4097956             -11.1511
       272        2.0000           -0.4070386             -11.0761
       273        2.0000           -0.4026860             -10.9576
       274        2.0000           -0.4009675             -10.9109
       275        1.9965           -0.3742376             -10.1835 (HOMO)
       276        0.0035           -0.3621633              -9.8550 (LUMO)
       277                         -0.3445978              -9.3770
       278                         -0.3384492              -9.2097
       279                         -0.3362910              -9.1509
       280                         -0.3308082              -9.0017
       281                         -0.3238605              -8.8127
       282                         -0.3191266              -8.6839
       283                         -0.3136718              -8.5354
       284                         -0.3120162              -8.4904
       285                         -0.3081117              -8.3841
       286                         -0.3074707              -8.3667
       ...                                ...                  ...
       532                          0.6693253              18.2133
      -------------------------------------------------------------
                  HL-Gap            0.0120744 Eh            0.3286 eV
             Fermi-level           -0.3682004 Eh          -10.0192 eV

     #   Z          covCN         q      C6AA      α(0)
     1   6 C        3.045     0.006    27.846     8.655
     2   6 C        3.037     0.006    27.856     8.657
     3   6 C        3.049     0.008    27.800     8.647
     4   6 C        3.041     0.003    27.909     8.665
     5   6 C        3.046     0.008    27.799     8.648
     6   6 C        3.040     0.008    27.811     8.650
     7   6 C        3.040     0.005    27.868     8.659
     8   6 C        3.045     0.002    27.930     8.668
     9   6 C        3.045     0.006    27.836     8.653
    10   6 C        3.035     0.004    27.904     8.664
    11   6 C        3.033     0.005    27.889     8.662
    12   6 C        3.038     0.007    27.840     8.654
    13   6 C        3.036     0.004    27.893     8.663
    14   6 C        3.030     0.003    27.921     8.667
    15   6 C        3.047     0.005    27.878     8.660
    16   6 C        3.039     0.002    27.951     8.672
    17   6 C        3.041     0.003    27.911     8.665
    18   6 C        3.043     0.003    27.912     8.665
    19   6 C        3.039     0.002    27.940     8.670
    20   6 C        3.037     0.003    27.928     8.668
    21   6 C        3.025     0.001    27.972     8.675
    22   6 C        3.033     0.003    27.918     8.667
    23   6 C        3.033    -0.015    28.351     8.734
    24   6 C        3.030     0.014    27.677     8.629
    25   6 C        3.043     0.009    27.787     8.646
    26   6 C        3.047     0.003    27.907     8.664
    27   6 C        3.045     0.004    27.889     8.662
    28   6 C        3.041    -0.002    28.032     8.684
    29   6 C        3.043     0.004    27.884     8.661
    30   6 C        3.029     0.005    27.876     8.660
    31   6 C        3.039     0.005    27.879     8.660
    32   6 C        3.048     0.004    27.899     8.663
    33   6 C        3.044     0.006    27.846     8.655
    34   6 C        3.043     0.003    27.921     8.667
    35   6 C        3.046     0.004    27.884     8.661
    36   6 C        3.041     0.005    27.871     8.659
    37   6 C        3.043     0.006    27.850     8.656
    38   6 C        3.038     0.002    27.936     8.669
    39   6 C        3.019     0.012    27.732     8.638
    40   6 C        3.023     0.002    27.965     8.674
    41   6 C        3.779     0.129    18.507     6.129
    42   6 C        3.780     0.132    18.469     6.122
    43   6 C        3.049    -0.003    28.061     8.688
    44   6 C        3.020     0.013    27.695     8.632
    45   6 C        3.819     0.022    20.187     6.394
    46   6 C        3.179    -0.002    27.651     8.585
    47   6 C        3.937     0.030    20.010     6.357
    48   6 C        3.021    -0.009    28.216     8.713
    49   6 C        3.059     0.001    27.954     8.670
    50   6 C        3.033    -0.001    28.028     8.684
    51   6 C        3.035     0.002    27.959     8.673
    52   6 C        3.051     0.004    27.896     8.662
    53   6 C        3.029    -0.001    28.018     8.682
    54   6 C        3.013     0.012    27.736     8.639
    55   6 C        3.027    -0.017    28.398     8.741
    56   6 C        3.031     0.003    27.931     8.669
    57   6 C        3.028     0.006    27.848     8.656
    58   6 C        3.063    -0.007    28.134     8.698
    59   6 C        3.041     0.011    27.726     8.636
    60   6 C        3.051     0.006    27.846     8.654
    61   6 C        3.828     0.016    20.289     6.409
    62   6 C        3.041    -0.004    28.095     8.694
    63   6 C        3.012    -0.018    28.442     8.748
    64   6 C        3.839     0.142    18.262     6.079
    65   6 C        3.043    -0.024    28.554     8.764
    66   6 C        3.026    -0.005    28.129     8.700
    67   6 C        3.035    -0.002    28.031     8.684
    68   6 C        3.062    -0.001    28.002     8.678
    69   6 C        3.963     0.020    20.162     6.380
    70   6 C        3.059    -0.002    28.028     8.682
    71   6 C        3.039    -0.002    28.036     8.685
    72   6 C        3.028    -0.025    28.594     8.771
    73   6 C        3.853     0.143    18.241     6.075
    74   6 C        3.834     0.148    18.179     6.066
    75   6 C        3.001    -0.049    29.199     8.864
    76   6 C        3.826     0.125    18.532     6.126
    77   6 C        3.824     0.125    18.529     6.125
    78   6 C        3.831     0.128    18.479     6.116
    79   6 C        2.999    -0.049    29.213     8.866
    80   6 C        3.018    -0.017    28.405     8.742
    81   6 C        3.841     0.143    18.250     6.077
    82   6 C        3.033    -0.015    28.362     8.735
    83   6 C        3.047     0.003    27.908     8.664
    84   6 C        3.057     0.001    27.954     8.671
    85   6 C        3.042     0.006    27.851     8.656
    86   6 C        3.043     0.007    27.812     8.650
    87   6 C        3.055     0.002    27.936     8.668
    88   6 C        3.061     0.003    27.909     8.663
    89   6 C        3.050     0.002    27.928     8.667
    90   6 C        3.032    -0.015    28.362     8.735
    91   6 C        3.036     0.006    27.848     8.656
    92   6 C        3.030     0.005    27.872     8.660
    93   6 C        3.002    -0.045    29.113     8.851
    94   6 C        3.832     0.127    18.491     6.118
    95   6 C        3.839     0.143    18.252     6.078
    96   6 C        3.011    -0.019    28.454     8.750
    97   6 C        3.003    -0.046    29.137     8.855
    98   6 C        3.830     0.146    18.219     6.073
    99   6 C        3.839     0.127    18.487     6.117
   100   6 C        3.835     0.129    18.459     6.112
   101   6 C        3.025    -0.020    28.489     8.755
   102   6 C        3.047     0.006    27.836     8.653
   103   6 C        3.057     0.004    27.874     8.658
   104   6 C        3.049     0.008    27.786     8.645
   105   6 C        3.052     0.007    27.805     8.648
   106   6 C        3.058     0.004    27.870     8.657
   107   6 C        3.054     0.005    27.866     8.657
   108   6 C        3.048     0.007    27.826     8.652
   109   6 C        3.035     0.007    27.833     8.653
   110   6 C        3.030     0.005    27.876     8.660
   111   6 C        3.014    -0.038    28.932     8.823
   112   6 C        3.838     0.149    18.159     6.062
   113   6 C        3.017    -0.019    28.469     8.752
   114   6 C        3.018    -0.020    28.482     8.754
   115   6 C        3.030    -0.000    28.001     8.680
   116   6 C        3.040    -0.015    28.358     8.734
   117   6 C        3.047     0.004    27.889     8.661
   118   6 C        3.049     0.004    27.881     8.660
   119   6 C        3.034    -0.016    28.380     8.738
   120   6 C        3.852     0.144    18.237     6.074
   121   8 O        1.704    -0.247    18.086     5.742
   122   8 O        1.704    -0.251    18.151     5.752
   123   8 O        1.704    -0.253    18.189     5.758
   124   8 O        1.704    -0.248    18.104     5.745
   125   8 O        1.704    -0.247    18.085     5.742
   126   8 O        1.704    -0.251    18.161     5.754
   127   8 O        1.704    -0.247    18.092     5.743
   128   8 O        1.656    -0.423    21.308     6.231
   129   8 O        1.656    -0.423    21.294     6.229
   130   1 H        0.805     0.314     0.681     1.297
   131   1 H        0.805     0.316     0.676     1.292
   132   6 C        3.759    -0.110    22.644     6.784
   133   1 H        0.927     0.021     2.724     2.581
   134   1 H        0.927     0.020     2.731     2.584
   135   1 H        0.926     0.006     2.952     2.687
   136   6 C        3.759    -0.112    22.690     6.791
   137   1 H        0.927     0.014     2.819     2.625
   138   1 H        0.927     0.016     2.792     2.613
   139   1 H        0.927     0.021     2.718     2.578

 Mol. C6AA /au·bohr⁶  :     456037.177741
 Mol. C8AA /au·bohr⁸  :   12783353.068081
 Mol. α(0) /au        :       1075.997358


Wiberg/Mayer (AO) data.
largest (>0.10) Wiberg bond orders for each atom

 ---------------------------------------------------------------------------
     #   Z sym  total        # sym  WBO       # sym  WBO       # sym  WBO
 ---------------------------------------------------------------------------
     1   6 C    3.964 --     9 C    1.387     2 C    1.161     5 C    1.148
     2   6 C    3.959 --    12 C    1.389     1 C    1.161     3 C    1.146
     3   6 C    3.944 --    15 C    1.379     4 C    1.162     2 C    1.146
     4   6 C    3.961 --    18 C    1.376     3 C    1.162     5 C    1.160
     5   6 C    3.947 --     6 C    1.380     4 C    1.160     1 C    1.148
     6   6 C    3.960 --     5 C    1.380     7 C    1.169    20 C    1.147
     7   6 C    3.935 --     8 C    1.360     6 C    1.169    22 C    1.155
     8   6 C    3.964 --     7 C    1.360    25 C    1.188     9 C    1.154
     9   6 C    3.952 --     1 C    1.387     8 C    1.154    10 C    1.141
    10   6 C    3.959 --    11 C    1.382    26 C    1.155     9 C    1.141
    11   6 C    3.956 --    10 C    1.382    12 C    1.154    29 C    1.151
    12   6 C    3.955 --     2 C    1.389    11 C    1.154    13 C    1.149
    13   6 C    3.955 --    14 C    1.365    30 C    1.173    12 C    1.149
    14   6 C    3.920 --    13 C    1.365    15 C    1.156    33 C    1.141
    15   6 C    3.957 --     3 C    1.379    14 C    1.156    16 C    1.151
    16   6 C    3.953 --    17 C    1.373    34 C    1.167    15 C    1.151
    17   6 C    3.958 --    16 C    1.373    37 C    1.164    18 C    1.159
    18   6 C    3.951 --     4 C    1.376    17 C    1.159    19 C    1.153
    19   6 C    3.960 --    20 C    1.354    38 C    1.177    18 C    1.153
    20   6 C    3.956 --    19 C    1.354    21 C    1.173     6 C    1.147
    21   6 C    3.960 --    40 C    1.492    20 C    1.173    22 C    1.060
    22   6 C    3.960 --    23 C    1.519     7 C    1.155    21 C    1.060
    23   6 C    3.950 --    22 C    1.519    24 C    1.173    42 C    0.965
    24   6 C    3.957 --    25 C    1.290    44 C    1.243    23 C    1.173
    25   6 C    3.906 --    24 C    1.290     8 C    1.188    26 C    1.166
    26   6 C    3.953 --    27 C    1.362    25 C    1.166    10 C    1.155
    27   6 C    3.954 --    26 C    1.362    28 C    1.305    45 C    1.015
    28   6 C    3.952 --    29 C    1.372    27 C    1.305    47 C    0.988
    29   6 C    3.954 --    28 C    1.372    30 C    1.168    11 C    1.151
    30   6 C    3.893 --    31 C    1.289    13 C    1.173    29 C    1.168
    31   6 C    3.957 --    48 C    1.299    30 C    1.289    32 C    1.117
    32   6 C    3.949 --    33 C    1.392    50 C    1.184    31 C    1.117
    33   6 C    3.957 --    32 C    1.392    34 C    1.156    14 C    1.141
    34   6 C    3.955 --    35 C    1.369    16 C    1.167    33 C    1.156
    35   6 C    3.961 --    34 C    1.369    51 C    1.176    36 C    1.148
    36   6 C    3.957 --    37 C    1.384    53 C    1.157    35 C    1.148
    37   6 C    3.959 --    36 C    1.384    17 C    1.164    38 C    1.148
    38   6 C    3.955 --    39 C    1.356    19 C    1.177    37 C    1.148
    39   6 C    3.962 --    38 C    1.356    40 C    1.205    54 C    1.143
    40   6 C    3.958 --    21 C    1.492    39 C    1.205    41 C    0.972
    41   6 C    3.946 --   129 O    0.999    40 C    0.972    55 C    0.963
                            42 C    0.874
    42   6 C    3.945 --   128 O    0.999    43 C    0.967    23 C    0.965
                            41 C    0.874
    43   6 C    3.961 --    57 C    1.512    44 C    1.204    42 C    0.967
    44   6 C    3.908 --    24 C    1.243    43 C    1.204    45 C    1.129
    45   6 C    3.953 --    44 C    1.129    46 C    1.024    27 C    1.015
                            61 C    0.555
    46   6 C    3.943 --    58 C    1.565    45 C    1.024    47 C    0.972
    47   6 C    3.957 --    48 C    1.082    28 C    0.988    46 C    0.972
                            69 C    0.708
    48   6 C    3.884 --    31 C    1.299    49 C    1.137    47 C    1.082
    49   6 C    3.957 --    59 C    1.402    50 C    1.164    48 C    1.137
    50   6 C    3.949 --    51 C    1.347    32 C    1.184    49 C    1.164
    51   6 C    3.954 --    50 C    1.347    35 C    1.176    52 C    1.168
    52   6 C    3.934 --    60 C    1.366    51 C    1.168    53 C    1.142
    53   6 C    3.951 --    54 C    1.368    36 C    1.157    52 C    1.142
    54   6 C    3.961 --    53 C    1.368    55 C    1.184    39 C    1.143
    55   6 C    3.930 --    56 C    1.501    54 C    1.184    41 C    0.963
    56   6 C    3.959 --    55 C    1.501    60 C    1.154    57 C    1.075
    57   6 C    3.931 --    43 C    1.512    58 C    1.097    56 C    1.075
    58   6 C    3.959 --    46 C    1.565    57 C    1.097    59 C    1.090
    59   6 C    3.939 --    49 C    1.402    60 C    1.169    58 C    1.090
    60   6 C    3.955 --    52 C    1.366    59 C    1.169    56 C    1.154
    61   6 C    3.932 --    65 C    1.067    62 C    1.058    69 C    0.982
                            45 C    0.555
    62   6 C    3.959 --    72 C    1.489    63 C    1.147    61 C    1.058
    63   6 C    3.969 --    75 C    1.575    62 C    1.147    64 C    1.023
    64   6 C    3.899 --    65 C    1.056    63 C    1.023   123 O    0.917
                            78 C    0.755
    65   6 C    3.949 --    66 C    1.512    61 C    1.067    64 C    1.056
    66   6 C    3.939 --    65 C    1.512    80 C    1.130    67 C    1.092
    67   6 C    3.953 --    68 C    1.421    82 C    1.207    66 C    1.092
    68   6 C    3.949 --    67 C    1.421    85 C    1.219    69 C    1.021
    69   6 C    3.960 --    70 C    1.025    68 C    1.021    61 C    0.982
                            47 C    0.708
    70   6 C    3.953 --    71 C    1.428    86 C    1.203    69 C    1.025
    71   6 C    3.956 --    70 C    1.428    89 C    1.168    72 C    1.112
    72   6 C    3.939 --    62 C    1.489    71 C    1.112    73 C    1.060
    73   6 C    3.896 --    72 C    1.060    90 C    1.053   126 O    0.918
                            74 C    0.705
    74   6 C    3.905 --    75 C    1.058    93 C    1.052   126 O    0.927
                            73 C    0.705
    75   6 C    3.950 --    63 C    1.575    74 C    1.058    76 C    1.026
    76   6 C    3.905 --    75 C    1.026    94 C    0.987   124 O    0.931
                            77 C    0.804
    77   6 C    3.907 --    97 C    1.027    78 C    0.988   124 O    0.931
                            76 C    0.804
    78   6 C    3.906 --    79 C    1.060    77 C    0.988   123 O    0.934
                            64 C    0.755
    79   6 C    3.938 --    80 C    1.578    78 C    1.060    98 C    1.028
    80   6 C    3.967 --    79 C    1.578    66 C    1.130    81 C    1.027
    81   6 C    3.899 --    82 C    1.043    80 C    1.027   122 O    0.923
                           100 C    0.751
    82   6 C    3.957 --    83 C    1.420    67 C    1.207    81 C    1.043
    83   6 C    3.954 --    82 C    1.420    84 C    1.185   102 C    1.114
    84   6 C    3.955 --    85 C    1.349    83 C    1.185   104 C    1.155
    85   6 C    3.963 --    84 C    1.349    68 C    1.219    86 C    1.144
    86   6 C    3.958 --    87 C    1.358    70 C    1.203    85 C    1.144
    87   6 C    3.954 --    86 C    1.358    88 C    1.179   105 C    1.155
    88   6 C    3.955 --    89 C    1.350    87 C    1.179   107 C    1.168
    89   6 C    3.963 --    88 C    1.350    90 C    1.184    71 C    1.168
    90   6 C    3.954 --    91 C    1.438    89 C    1.184    73 C    1.053
    91   6 C    3.963 --    90 C    1.438   108 C    1.166    92 C    1.114
    92   6 C    3.968 --    93 C    1.529    91 C    1.114   110 C    1.108
    93   6 C    3.953 --    92 C    1.529    94 C    1.059    74 C    1.052
    94   6 C    3.907 --    93 C    1.059    76 C    0.987   125 O    0.932
                            95 C    0.758
    95   6 C    3.903 --   111 C    1.050    96 C    1.023   125 O    0.921
                            94 C    0.758
    96   6 C    3.971 --    97 C    1.576   113 C    1.148    95 C    1.023
    97   6 C    3.958 --    96 C    1.576    98 C    1.059    77 C    1.027
    98   6 C    3.907 --    97 C    1.059    79 C    1.028   127 O    0.922
                            99 C    0.742
    99   6 C    3.902 --   114 C    1.067   100 C    0.995   127 O    0.930
                            98 C    0.742
   100   6 C    3.907 --   101 C    1.051    99 C    0.995   122 O    0.939
                            81 C    0.751
   101   6 C    3.957 --   102 C    1.417   115 C    1.200   100 C    1.051
   102   6 C    3.962 --   101 C    1.417   103 C    1.186    83 C    1.114
   103   6 C    3.959 --   117 C    1.346   102 C    1.186   104 C    1.161
   104   6 C    3.957 --   105 C    1.382   103 C    1.161    84 C    1.155
   105   6 C    3.956 --   104 C    1.382   106 C    1.157    87 C    1.155
   106   6 C    3.965 --   118 C    1.363   107 C    1.175   105 C    1.157
   107   6 C    3.957 --   108 C    1.360   106 C    1.175    88 C    1.168
   108   6 C    3.962 --   107 C    1.360   109 C    1.171    91 C    1.166
   109   6 C    3.961 --   119 C    1.435   108 C    1.171   110 C    1.110
   110   6 C    3.967 --   111 C    1.538   109 C    1.110    92 C    1.108
   111   6 C    3.954 --   110 C    1.538   112 C    1.050    95 C    1.050
   112   6 C    3.907 --   111 C    1.050   113 C    1.048   121 O    0.931
                           120 C    0.710
   113   6 C    3.962 --   114 C    1.497    96 C    1.148   112 C    1.048
   114   6 C    3.963 --   113 C    1.497   115 C    1.133    99 C    1.067
   115   6 C    3.966 --   116 C    1.397   101 C    1.200   114 C    1.133
   116   6 C    3.959 --   115 C    1.397   117 C    1.211   120 C    1.053
   117   6 C    3.961 --   103 C    1.346   116 C    1.211   118 C    1.153
   118   6 C    3.961 --   106 C    1.363   119 C    1.185   117 C    1.153
   119   6 C    3.958 --   109 C    1.435   118 C    1.185   120 C    1.052
   120   6 C    3.898 --   116 C    1.053   119 C    1.052   121 O    0.922
                           112 C    0.710
   121   8 O    2.053 --   112 C    0.931   120 C    0.922
   122   8 O    2.055 --   100 C    0.939    81 C    0.923
   123   8 O    2.048 --    78 C    0.934    64 C    0.917
   124   8 O    2.049 --    76 C    0.931    77 C    0.931
   125   8 O    2.049 --    94 C    0.932    95 C    0.921
   126   8 O    2.048 --    74 C    0.927    73 C    0.918
   127   8 O    2.052 --    99 C    0.930    98 C    0.922
   128   8 O    1.993 --    42 C    0.999   131 H    0.876
   129   8 O    1.993 --    41 C    0.999   130 H    0.878
   130   1 H    0.900 --   129 O    0.878
   131   1 H    0.899 --   128 O    0.876
   132   6 C    3.997 --   136 C    1.028   133 H    0.966   134 H    0.965
                           135 H    0.965
   133   1 H    1.000 --   132 C    0.966
   134   1 H    0.999 --   132 C    0.965
   135   1 H    1.000 --   132 C    0.965
   136   6 C    3.995 --   132 C    1.028   137 H    0.968   138 H    0.967
                           139 H    0.961
   137   1 H    1.000 --   136 C    0.968
   138   1 H    1.000 --   136 C    0.967
   139   1 H    1.000 --   136 C    0.961
 ---------------------------------------------------------------------------

Topologies differ in total number of bonds
Writing topology from bond orders to xtbtopo.mol

molecular dipole:
                 x           y           z       tot (Debye)
 q only:        4.241       0.391       0.809
   full:        3.402       0.036       0.613       8.788
molecular quadrupole (traceless):
                xx          xy          yy          xz          yz          zz
 q only:      -87.849      13.668      58.862     -41.825      18.321      28.987
  q+dip:      -73.950      13.919      46.190     -34.933      16.932      27.760
   full:      -73.842      14.016      47.208     -33.888      16.532      26.634


           -------------------------------------------------
          | TOTAL ENERGY             -301.730361200170 Eh   |
          | GRADIENT NORM               0.000197184650 Eh/α |
          | HOMO-LUMO GAP               0.328560127149 eV   |
           -------------------------------------------------

------------------------------------------------------------------------
 * finished run on 2025/02/16 at 23:47:49.919     
------------------------------------------------------------------------
 total:
 * wall-time:     0 d,  0 h,  0 min,  0.611 sec
 *  cpu-time:     0 d,  0 h,  0 min,  9.397 sec
 * ratio c/w:    15.385 speedup
 SCF:
 * wall-time:     0 d,  0 h,  0 min,  0.384 sec
 *  cpu-time:     0 d,  0 h,  0 min,  6.098 sec
 * ratio c/w:    15.889 speedup

