 Entering Gaussian System, Link 0=/opt/g16C01/g16
 Input=freqcalc.gjf
 Output=freqcalc.log
 Initial command:
 /opt/g16C01/l1.exe "/scratch/Gau-885338.inp" -scrdir="/scratch/"
 Entering Link 1 = /opt/g16C01/l1.exe PID=    885339.
  
 Copyright (c) 1988-2019, Gaussian, Inc.  All Rights Reserved.
  
 This is part of the Gaussian(R) 16 program.  It is based on
 the Gaussian(R) 09 system (copyright 2009, Gaussian, Inc.),
 the Gaussian(R) 03 system (copyright 2003, Gaussian, Inc.),
 the Gaussian(R) 98 system (copyright 1998, Gaussian, Inc.),
 the Gaussian(R) 94 system (copyright 1995, Gaussian, Inc.),
 the Gaussian 92(TM) system (copyright 1992, Gaussian, Inc.),
 the Gaussian 90(TM) system (copyright 1990, Gaussian, Inc.),
 the Gaussian 88(TM) system (copyright 1988, Gaussian, Inc.),
 the Gaussian 86(TM) system (copyright 1986, Carnegie Mellon
 University), and the Gaussian 82(TM) system (copyright 1983,
 Carnegie Mellon University). Gaussian is a federally registered
 trademark of Gaussian, Inc.
  
 This software contains proprietary and confidential information,
 including trade secrets, belonging to Gaussian, Inc.
  
 This software is provided under written license and may be
 used, copied, transmitted, or stored only in accord with that
 written license.
  
 The following legend is applicable only to US Government
 contracts under FAR:
  
                    RESTRICTED RIGHTS LEGEND
  
 Use, reproduction and disclosure by the US Government is
 subject to restrictions as set forth in subparagraphs (a)
 and (c) of the Commercial Computer Software - Restricted
 Rights clause in FAR 52.227-19.
  
 Gaussian, Inc.
 340 Quinnipiac St., Bldg. 40, Wallingford CT 06492
  
  
 ---------------------------------------------------------------
 Warning -- This program may not be used in any manner that
 competes with the business of Gaussian, Inc. or will provide
 assistance to any competitor of Gaussian, Inc.  The licensee
 of this program is prohibited from giving any competitor of
 Gaussian, Inc. access to this program.  By using this program,
 the user acknowledges that Gaussian, Inc. is engaged in the
 business of creating and licensing software in the field of
 computational chemistry and represents and warrants to the
 licensee that it is not a competitor of Gaussian, Inc. and that
 it will not use this program in any manner prohibited above.
 ---------------------------------------------------------------
  

 Cite this work as:
 Gaussian 16, Revision C.01,
 M. J. Frisch, G. W. Trucks, H. B. Schlegel, G. E. Scuseria, 
 M. A. Robb, J. R. Cheeseman, G. Scalmani, V. Barone, 
 G. A. Petersson, H. Nakatsuji, X. Li, M. Caricato, A. V. Marenich, 
 J. Bloino, B. G. Janesko, R. Gomperts, B. Mennucci, H. P. Hratchian, 
 J. V. Ortiz, A. F. Izmaylov, J. L. Sonnenberg, D. Williams-Young, 
 F. Ding, F. Lipparini, F. Egidi, J. Goings, B. Peng, A. Petrone, 
 T. Henderson, D. Ranasinghe, V. G. Zakrzewski, J. Gao, N. Rega, 
 G. Zheng, W. Liang, M. Hada, M. Ehara, K. Toyota, R. Fukuda, 
 J. Hasegawa, M. Ishida, T. Nakajima, Y. Honda, O. Kitao, H. Nakai, 
 T. Vreven, K. Throssell, J. A. Montgomery, Jr., J. E. Peralta, 
 F. Ogliaro, M. J. Bearpark, J. J. Heyd, E. N. Brothers, K. N. Kudin, 
 V. N. Staroverov, T. A. Keith, R. Kobayashi, J. Normand, 
 K. Raghavachari, A. P. Rendell, J. C. Burant, S. S. Iyengar, 
 J. Tomasi, M. Cossi, J. M. Millam, M. Klene, C. Adamo, R. Cammi, 
 J. W. Ochterski, R. L. Martin, K. Morokuma, O. Farkas, 
 J. B. Foresman, and D. J. Fox, Gaussian, Inc., Wallingford CT, 2019.
 
 ******************************************
 Gaussian 16:  ES64L-G16RevC.01  3-Jul-2019
                11-Feb-2024 
 ******************************************
 %nprocs=1
 Will use up to    1 processors via shared memory.
 -------------------------------------------
 # freq=noraman external="xtb-gaussian -P 4"
 -------------------------------------------
 1/10=4,18=10,30=1,38=1/1,3;
 2/12=2,17=6,18=5,40=1/2;
 3/11=9,25=1,30=1,41=9900000,43=2,71=2,140=1/1;
 4/20=17,22=2,24=3,113=1,114=1/2;
 6/7=2,8=2,9=2,10=2/1;
 7/8=1,25=1,44=-1/16;
 1/10=4,18=10,30=1/3;
 99//99;
 -----------
 Simple test
 -----------
 Symbolic Z-matrix:
 Charge =  0 Multiplicity = 1
 C                    -1.16244  -0.2193   -2.60596 
 C                    -1.53008   0.21963  -1.38845 
 H                    -0.79885   0.44947  -3.36754 
 H                    -1.25415  -1.25651  -2.8762 
 H                    -1.49988   1.26339  -1.12547 
 H                    -1.9483   -0.44973  -0.65724 
 O                     0.45582  -0.33045  -1.22797 
 O                     1.84268  -0.847    -0.52454 
 O                     2.72599   1.10207  -1.15441 
 H                     0.81267   0.53835  -1.51668 
 C                     2.78502   0.01748  -0.62255 
 H                     3.70162  -0.36614  -0.13884 
 

 GradGradGradGradGradGradGradGradGradGradGradGradGradGradGradGradGradGrad
 Berny optimization.
 Initialization pass.
 Trust Radius=3.00D-01 FncErr=1.00D-07 GrdErr=1.00D-07 EigMax=2.50D+02 EigMin=1.00D-04
 Number of steps in this run=      2 maximum allowed number of steps=      2.
 GradGradGradGradGradGradGradGradGradGradGradGradGradGradGradGradGradGrad

                          Input orientation:                          
 ---------------------------------------------------------------------
 Center     Atomic      Atomic             Coordinates (Angstroms)
 Number     Number       Type             X           Y           Z
 ---------------------------------------------------------------------
      1          6           0       -1.162438   -0.219299   -2.605963
      2          6           0       -1.530077    0.219627   -1.388447
      3          1           0       -0.798849    0.449471   -3.367537
      4          1           0       -1.254151   -1.256515   -2.876198
      5          1           0       -1.499883    1.263388   -1.125470
      6          1           0       -1.948299   -0.449733   -0.657244
      7          8           0        0.455822   -0.330452   -1.227966
      8          8           0        1.842683   -0.846995   -0.524539
      9          8           0        2.725993    1.102067   -1.154410
     10          1           0        0.812666    0.538346   -1.516682
     11          6           0        2.785020    0.017480   -0.622547
     12          1           0        3.701618   -0.366143   -0.138835
 ---------------------------------------------------------------------
                    Distance matrix (angstroms):
                    1          2          3          4          5
     1  C    0.000000
     2  C    1.345422   0.000000
     3  H    1.076776   2.122339   0.000000
     4  H    1.075757   2.113890   1.832785   0.000000
     5  H    2.122284   1.076803   2.486117   3.078204   0.000000
     6  H    2.113808   1.075923   3.078229   2.460995   1.831692
     7  O    2.128379   2.066915   2.600047   2.549170   2.524997
     8  O    3.709054   3.641364   4.091596   3.910037   3.998447
     9  O    4.355790   4.352885   4.212876   4.936497   4.229053
    10  H    2.379410   2.367798   2.455716   3.056393   2.454916
    11  C    4.424074   4.387201   4.534943   4.797594   4.490614
    12  H    5.455944   5.410665   5.598567   5.731105   5.539353
                    6          7          8          9         10
     6  H    0.000000
     7  O    2.473813   0.000000
     8  O    3.814050   1.638600   0.000000
     9  O    4.950178   2.685367   2.230654   0.000000
    10  H    3.055791   0.982600   1.991094   2.027275   0.000000
    11  C    4.756449   2.431615   1.282545   1.209418   2.227322
    12  H    5.674267   3.423839   1.958475   2.034423   3.326050
                   11         12
    11  C    0.000000
    12  H    1.105122   0.000000
 Stoichiometry    C3H6O3
 Framework group  C1[X(C3H6O3)]
 Deg. of freedom    30
 Full point group                 C1      NOp   1
 Largest Abelian subgroup         C1      NOp   1
 Largest concise Abelian subgroup C1      NOp   1
                         Standard orientation:                         
 ---------------------------------------------------------------------
 Center     Atomic      Atomic             Coordinates (Angstroms)
 Number     Number       Type             X           Y           Z
 ---------------------------------------------------------------------
      1          6           0       -2.305363    0.270173   -0.650972
      2          6           0       -2.273348    0.055681    0.676856
      3          1           0       -2.139072    1.245746   -1.075296
      4          1           0       -2.536442   -0.523914   -1.338927
      5          1           0       -2.102693    0.853655    1.379438
      6          1           0       -2.500686   -0.910887    1.091190
      7          8           0       -0.365460   -0.333342   -0.016511
      8          8           0        1.131354   -0.997969   -0.069704
      9          8           0        1.911904    1.086958    0.070439
     10          1           0       -0.055060    0.596576    0.049879
     11          6           0        2.055958   -0.110897   -0.013717
     12          1           0        3.048085   -0.596108   -0.053080
 ---------------------------------------------------------------------
 Rotational constants (GHZ):           8.6241439           1.6556257           1.5306215
 Standard basis: STO-3G (5D, 7F)
 There are    36 symmetry adapted cartesian basis functions of A   symmetry.
 There are    36 symmetry adapted basis functions of A   symmetry.
    36 basis functions,   108 primitive gaussians,    36 cartesian basis functions
    24 alpha electrons       24 beta electrons
       nuclear repulsion energy       232.2572967430 Hartrees.
 NAtoms=   12 NActive=   12 NUniq=   12 SFac= 1.00D+00 NAtFMM=   60 NAOKFM=F Big=F
 Integral buffers will be    131072 words long.
 Raffenetti 1 integral format.
 Two-electron integral symmetry is turned on.
 External calculation of energy, first and second derivatives.
 Running external command "xtb-gaussian -P 4 R"
         input file       "/scratch/Gau-885339.EIn"
         output file      "/scratch/Gau-885339.EOu"
         message file     "/scratch/Gau-885339.EMs"
         fchk file        "/scratch/Gau-885339.EFC"
         mat. el file     "/scratch/Gau-885339.EUF"

 ExternalExternalExternalExternalExternalExternalExternalExternalExternalExternal
 Output from external command:
 "xtb-gaussian -P 4 R /scratch/Gau-885339.EIn /scratch/Gau-885339.EOu /scratch/Gau-885339.EMs /scratch/Gau-885339.EFC /scratch/Gau-885339.EUF"
 normal termination of xtb
  
 ------- xtb command was ---------
 ?> xtb ./Gau-885339.EIn -P 4 --hess --charge 0 --alpb water >/dev/null 2>Gau-885339.EMs
 ---------------------------------
              Control returned to Gaussian.
 ~~~~~~~~~~~~~~~~~~~~~~~~~~~~~~~~~~~~~~~~~~~~~~~~~~~~~~~~~~~~~~~~~~~~~~~~~
 ExternalExternalExternalExternalExternalExternalExternalExternalExternalExternal

 Recovered energy= -21.5325750370     dipole=     -1.189355284690      0.136431542031      0.021753403515
 Energy=    -21.5325750     NIter=   0.
 Dipole moment=      -1.189355       0.136432       0.021753
 Full mass-weighted force constant matrix:
 Low frequencies --- -399.4868   -0.0199   -0.0140    0.0072    0.0133    0.0150
 Low frequencies ---    0.0181   50.3008  119.9360
 ******    1 imaginary frequencies (negative Signs) ****** 
 Diagonal vibrational polarizability:
        0.0000000       0.0000000       0.0000000
 Harmonic frequencies (cm**-1), IR intensities (KM/Mole), Raman scattering
 activities (A**4/AMU), depolarization ratios for plane and unpolarized
 incident light, reduced masses (AMU), force constants (mDyne/A),
 and normal coordinates:
                      1                      2                      3
                      A                      A                      A
 Frequencies --   -399.4868                50.3008               119.9360
 Red. masses --     11.3370                 2.8326                 6.4305
 Frc consts  --      1.0660                 0.0042                 0.0545
 IR Inten    --      0.0000                 0.0000                 0.0000
  Atom  AN      X      Y      Z        X      Y      Z        X      Y      Z
     1   6    -0.29   0.06   0.07     0.03   0.20  -0.01    -0.14  -0.17  -0.02
     2   6    -0.35   0.08  -0.05    -0.03  -0.19  -0.07    -0.19  -0.14  -0.01
     3   1    -0.20   0.03   0.05     0.06   0.32   0.29    -0.33  -0.14  -0.02
     4   1    -0.17   0.06   0.03     0.08   0.39  -0.25     0.09  -0.23  -0.02
     5   1    -0.20   0.04  -0.05    -0.09  -0.40   0.18    -0.42  -0.10  -0.01
     6   1    -0.18   0.06  -0.02    -0.07  -0.31  -0.36    -0.00  -0.19  -0.01
     7   8     0.66  -0.22  -0.01    -0.00  -0.01   0.09    -0.10   0.23   0.04
     8   8    -0.19   0.08   0.00     0.00  -0.01   0.15    -0.09   0.14  -0.00
     9   8     0.05   0.01  -0.00     0.00   0.01  -0.17     0.43  -0.03   0.01
    10   1     0.13  -0.03  -0.03    -0.01  -0.00   0.09    -0.11   0.21   0.13
    11   6     0.01   0.04   0.00     0.00   0.00  -0.02     0.09  -0.06  -0.03
    12   1    -0.17  -0.22  -0.01     0.00  -0.00  -0.00    -0.03  -0.32  -0.10
                      4                      5                      6
                      A                      A                      A
 Frequencies --    129.2483               211.1480               295.2606
 Red. masses --      2.6525                 3.4112                 3.7118
 Frc consts  --      0.0261                 0.0896                 0.1907
 IR Inten    --      0.0000                 0.0000                 0.0000
  Atom  AN      X      Y      Z        X      Y      Z        X      Y      Z
     1   6     0.25  -0.04  -0.01    -0.17   0.01  -0.12     0.06  -0.06  -0.00
     2   6    -0.21   0.05   0.02     0.15   0.03  -0.13     0.09  -0.06  -0.01
     3   1     0.37  -0.07  -0.02    -0.20  -0.01  -0.18    -0.32   0.01   0.03
     4   1     0.39  -0.07  -0.03    -0.20  -0.03  -0.06     0.44  -0.15  -0.03
     5   1    -0.34   0.08   0.02     0.17   0.06  -0.17    -0.26   0.00  -0.00
     6   1    -0.33   0.07   0.01     0.18   0.05  -0.06     0.49  -0.16  -0.02
     7   8     0.01  -0.01   0.11     0.01  -0.02   0.24     0.16   0.29   0.02
     8   8     0.00  -0.00  -0.04     0.02  -0.01   0.03    -0.09  -0.04  -0.00
     9   8    -0.03   0.00   0.02    -0.01  -0.01   0.11    -0.17  -0.09  -0.01
    10   1     0.02  -0.04   0.43     0.01  -0.03   0.34     0.29   0.27   0.03
    11   6    -0.01   0.01  -0.13     0.00   0.01  -0.19    -0.06  -0.08  -0.00
    12   1    -0.00   0.05  -0.37     0.01   0.06  -0.68    -0.04  -0.03   0.01
                      7                      8                      9
                      A                      A                      A
 Frequencies --    394.5723               431.2498               466.9087
 Red. masses --      3.3331                 4.9109                 1.2755
 Frc consts  --      0.3057                 0.5381                 0.1638
 IR Inten    --      0.0000                 0.0000                 0.0000
  Atom  AN      X      Y      Z        X      Y      Z        X      Y      Z
     1   6     0.05  -0.01   0.04    -0.20   0.06   0.01     0.03   0.03   0.00
     2   6    -0.01  -0.01   0.04    -0.23   0.07   0.03     0.02   0.04   0.00
     3   1     0.04  -0.00   0.06    -0.46   0.13   0.05    -0.44   0.14   0.06
     4   1    -0.04   0.02   0.04     0.05   0.01  -0.01     0.52  -0.06  -0.05
     5   1     0.09  -0.04   0.05    -0.49   0.14   0.02    -0.42   0.15  -0.01
     6   1     0.01  -0.02   0.03    -0.00   0.01   0.02     0.47  -0.06   0.01
     7   8     0.00   0.01  -0.22    -0.03   0.09  -0.04    -0.03  -0.10   0.01
     8   8    -0.03  -0.00   0.25     0.33  -0.14   0.02    -0.02   0.01  -0.00
     9   8     0.01  -0.00   0.11    -0.10  -0.06   0.01     0.03   0.02   0.01
    10   1    -0.02   0.04  -0.43     0.16   0.02  -0.04    -0.10  -0.08  -0.18
    11   6    -0.02   0.01  -0.18     0.20  -0.03  -0.02    -0.03   0.02  -0.00
    12   1    -0.04   0.03  -0.79     0.33   0.24  -0.07    -0.04  -0.02  -0.02
                     10                     11                     12
                      A                      A                      A
 Frequencies --    518.2957               776.1120               836.9276
 Red. masses --      1.2157                 9.7126                 1.0508
 Frc consts  --      0.1924                 3.4469                 0.4336
 IR Inten    --      0.0000                 0.0000                 0.0000
  Atom  AN      X      Y      Z        X      Y      Z        X      Y      Z
     1   6    -0.02   0.00   0.01     0.03   0.00   0.00    -0.01  -0.04  -0.01
     2   6     0.03   0.01   0.01     0.03   0.00  -0.01    -0.01  -0.04  -0.01
     3   1    -0.11   0.01  -0.00    -0.02   0.03   0.05     0.08   0.16   0.47
     4   1     0.02  -0.02   0.02     0.08   0.03  -0.04     0.00   0.30  -0.40
     5   1    -0.02   0.04  -0.01     0.01   0.04  -0.04     0.06   0.30  -0.40
     6   1     0.13  -0.00   0.03     0.07   0.02   0.05     0.03   0.16   0.47
     7   8    -0.00  -0.02  -0.10    -0.08  -0.11  -0.01     0.00   0.01   0.00
     8   8    -0.01  -0.00   0.04    -0.10   0.48   0.03     0.00  -0.00  -0.00
     9   8     0.01   0.01  -0.02    -0.24  -0.27  -0.02     0.00   0.00   0.00
    10   1     0.01  -0.10   0.97    -0.38  -0.00   0.03     0.02   0.00  -0.00
    11   6    -0.01   0.00   0.01     0.48  -0.13  -0.01    -0.01   0.00   0.00
    12   1    -0.01  -0.01   0.04     0.37  -0.21  -0.02    -0.00   0.00   0.00
                     13                     14                     15
                      A                      A                      A
 Frequencies --    903.7095               923.7872               976.8863
 Red. masses --      1.3416                 1.6657                 1.0123
 Frc consts  --      0.6456                 0.8375                 0.5692
 IR Inten    --      0.0000                 0.0000                 0.0000
  Atom  AN      X      Y      Z        X      Y      Z        X      Y      Z
     1   6    -0.12   0.03   0.02     0.00  -0.00  -0.00     0.01   0.01  -0.00
     2   6     0.11  -0.03   0.01    -0.00   0.00  -0.00    -0.01  -0.01  -0.00
     3   1     0.46  -0.10  -0.03    -0.00   0.00   0.00    -0.52   0.10   0.02
     4   1     0.56  -0.12  -0.03    -0.01   0.00  -0.00     0.43  -0.12   0.00
     5   1    -0.39   0.08   0.00     0.00  -0.00   0.00     0.54  -0.10  -0.03
     6   1    -0.50   0.12   0.02     0.02  -0.00  -0.00    -0.46   0.12   0.06
     7   8     0.00   0.00  -0.02     0.00  -0.00   0.01     0.00   0.00   0.00
     8   8    -0.00   0.00   0.01     0.00  -0.00   0.04     0.00  -0.00   0.00
     9   8    -0.00  -0.00   0.00     0.00  -0.00   0.06     0.00  -0.00   0.00
    10   1     0.01   0.00  -0.01    -0.00   0.00  -0.02    -0.02   0.01   0.01
    11   6    -0.00   0.00  -0.01    -0.00   0.02  -0.23    -0.00   0.00  -0.00
    12   1    -0.00  -0.00   0.01     0.01  -0.07   0.97     0.00   0.00   0.01
                     16                     17                     18
                      A                      A                      A
 Frequencies --   1010.2945              1156.6792              1161.4170
 Red. masses --      1.1504                 1.1787                 1.5221
 Frc consts  --      0.6918                 0.9291                 1.2096
 IR Inten    --      0.0000                 0.0000                 0.0000
  Atom  AN      X      Y      Z        X      Y      Z        X      Y      Z
     1   6    -0.07   0.01   0.01     0.01   0.01   0.01     0.03   0.15   0.02
     2   6    -0.08   0.02  -0.00     0.00  -0.02  -0.01    -0.03  -0.15  -0.02
     3   1     0.46  -0.09  -0.02    -0.08   0.01  -0.01     0.00  -0.09  -0.48
     4   1     0.44  -0.09  -0.04    -0.06  -0.03   0.06    -0.06  -0.21   0.43
     5   1     0.52  -0.11  -0.01    -0.06   0.03  -0.05    -0.01   0.23  -0.43
     6   1     0.50  -0.12   0.00    -0.07   0.01   0.01     0.09   0.06   0.48
     7   8    -0.02   0.00   0.00    -0.04  -0.02   0.00     0.00   0.00   0.00
     8   8     0.00  -0.00  -0.00    -0.07  -0.01   0.00     0.01   0.00   0.00
     9   8     0.00   0.00   0.00     0.00   0.04   0.00    -0.00  -0.00   0.00
    10   1     0.12  -0.04  -0.00     0.93  -0.30  -0.05    -0.09   0.03  -0.01
    11   6     0.01   0.00   0.00     0.07   0.01  -0.00    -0.01  -0.00  -0.00
    12   1     0.01   0.00  -0.00     0.06   0.06   0.01    -0.01  -0.01   0.00
                     19                     20                     21
                      A                      A                      A
 Frequencies --   1207.3671              1308.9691              1354.7960
 Red. masses --      3.3089                 1.2732                 1.1343
 Frc consts  --      2.8419                 1.2853                 1.2267
 IR Inten    --      0.0000                 0.0000                 0.0000
  Atom  AN      X      Y      Z        X      Y      Z        X      Y      Z
     1   6     0.01  -0.00   0.00    -0.00   0.00   0.00    -0.00   0.01  -0.07
     2   6     0.01  -0.00  -0.00    -0.00   0.00   0.00    -0.00  -0.01   0.07
     3   1     0.03  -0.01  -0.02     0.00   0.00   0.00    -0.07  -0.13  -0.47
     4   1     0.01   0.01  -0.01     0.00  -0.00   0.00     0.03   0.27  -0.42
     5   1     0.02  -0.01   0.00     0.00   0.00  -0.00    -0.06  -0.27   0.41
     6   1     0.03   0.00   0.02     0.00  -0.00  -0.01     0.05   0.13   0.48
     7   8    -0.00   0.02   0.00     0.01  -0.01  -0.00     0.01  -0.00  -0.00
     8   8    -0.21  -0.20  -0.01    -0.00   0.06   0.00    -0.01   0.00   0.00
     9   8    -0.00   0.11   0.01     0.04  -0.06  -0.00    -0.00   0.00   0.00
    10   1    -0.56   0.18   0.03     0.05  -0.02  -0.00     0.05  -0.02  -0.00
    11   6     0.27   0.05   0.00    -0.10  -0.05  -0.00     0.00  -0.00  -0.00
    12   1     0.43   0.54   0.03     0.38   0.91   0.06     0.00   0.00  -0.00
                     22                     23                     24
                      A                      A                      A
 Frequencies --   1382.4556              1600.0089              1705.3110
 Red. masses --      1.1129                 4.1782                11.6536
 Frc consts  --      1.2531                 6.3021                19.9672
 IR Inten    --      0.0000                 0.0000                 0.0000
  Atom  AN      X      Y      Z        X      Y      Z        X      Y      Z
     1   6    -0.00   0.01  -0.07    -0.02   0.06  -0.37     0.01   0.00  -0.04
     2   6     0.00   0.01  -0.07    -0.01  -0.06   0.37     0.01  -0.01   0.04
     3   1     0.09   0.20   0.45     0.10   0.32   0.26     0.00   0.03   0.02
     4   1    -0.05  -0.33   0.37    -0.06  -0.38   0.16    -0.01  -0.03   0.01
     5   1    -0.09  -0.33   0.36     0.10   0.38  -0.15     0.00   0.03  -0.01
     6   1     0.06   0.20   0.45    -0.07  -0.32  -0.27    -0.01  -0.02  -0.02
     7   8     0.00  -0.00  -0.00     0.03  -0.01  -0.00    -0.03   0.02   0.00
     8   8    -0.00   0.00  -0.00    -0.02   0.01   0.00    -0.05  -0.10  -0.01
     9   8     0.00  -0.00  -0.00    -0.00   0.02   0.00     0.07  -0.50  -0.04
    10   1    -0.00   0.00  -0.00     0.01  -0.01   0.00     0.12  -0.07  -0.01
    11   6    -0.00  -0.00   0.00     0.00  -0.02  -0.00     0.02   0.77   0.05
    12   1     0.00   0.00   0.00     0.01  -0.02  -0.00    -0.28   0.17   0.01
                     25                     26                     27
                      A                      A                      A
 Frequencies --   2794.4645              3107.3288              3109.2518
 Red. masses --      1.0685                 1.0582                 1.0536
 Frc consts  --      4.9160                 6.0200                 6.0009
 IR Inten    --      0.0000                 0.0000                 0.0000
  Atom  AN      X      Y      Z        X      Y      Z        X      Y      Z
     1   6    -0.00  -0.00   0.00     0.00  -0.01   0.04    -0.00  -0.03   0.04
     2   6    -0.00   0.00  -0.00    -0.00  -0.01  -0.05     0.00   0.02   0.03
     3   1     0.00   0.00  -0.00     0.07   0.42  -0.17     0.12   0.66  -0.28
     4   1     0.00  -0.00  -0.00    -0.08  -0.27  -0.21    -0.08  -0.27  -0.21
     5   1     0.00   0.00   0.00     0.11   0.51   0.43    -0.09  -0.41  -0.35
     6   1     0.00  -0.00   0.00    -0.10  -0.42   0.16     0.05   0.20  -0.07
     7   8     0.00   0.00   0.00     0.00   0.00   0.00    -0.00   0.00  -0.00
     8   8    -0.01  -0.00  -0.00    -0.00   0.00  -0.00    -0.00  -0.00   0.00
     9   8    -0.00   0.00   0.00    -0.00  -0.00  -0.00    -0.00  -0.00  -0.00
    10   1     0.00  -0.02  -0.00    -0.01  -0.03  -0.00    -0.00  -0.00   0.00
    11   6    -0.06   0.04   0.00     0.00   0.00   0.00     0.00   0.00   0.00
    12   1     0.90  -0.43  -0.04    -0.00   0.00   0.00    -0.00   0.00  -0.00
                     28                     29                     30
                      A                      A                      A
 Frequencies --   3132.8621              3153.7365              3216.2350
 Red. masses --      1.0975                 1.1151                 1.0699
 Frc consts  --      6.3468                 6.5348                 6.5207
 IR Inten    --      0.0000                 0.0000                 0.0000
  Atom  AN      X      Y      Z        X      Y      Z        X      Y      Z
     1   6     0.01   0.06   0.02    -0.02  -0.07  -0.02    -0.00  -0.00   0.00
     2   6    -0.01  -0.06   0.01    -0.01  -0.07  -0.00    -0.00  -0.00  -0.00
     3   1    -0.04  -0.23   0.12     0.06   0.37  -0.17     0.00   0.02  -0.01
     4   1    -0.13  -0.46  -0.41     0.13   0.44   0.39     0.00   0.00   0.00
     5   1     0.05   0.21   0.20     0.06   0.28   0.26     0.01   0.02   0.02
     6   1     0.14   0.59  -0.26     0.12   0.50  -0.22     0.00   0.00  -0.00
     7   8     0.00   0.00  -0.00     0.00   0.00   0.00    -0.02  -0.06  -0.00
     8   8    -0.00   0.00   0.00    -0.00   0.00  -0.00     0.00  -0.00  -0.00
     9   8    -0.00   0.00   0.00    -0.00   0.00   0.00     0.00  -0.00  -0.00
    10   1    -0.00  -0.00  -0.00    -0.01  -0.03  -0.00     0.28   0.95   0.07
    11   6    -0.00  -0.00  -0.00     0.00  -0.00  -0.00    -0.00   0.00   0.00
    12   1    -0.00   0.00   0.00    -0.00   0.00   0.00     0.01  -0.01  -0.00

 -------------------
 - Thermochemistry -
 -------------------
 Temperature   298.150 Kelvin.  Pressure   1.00000 Atm.
 Atom     1 has atomic number  6 and mass  12.00000
 Atom     2 has atomic number  6 and mass  12.00000
 Atom     3 has atomic number  1 and mass   1.00783
 Atom     4 has atomic number  1 and mass   1.00783
 Atom     5 has atomic number  1 and mass   1.00783
 Atom     6 has atomic number  1 and mass   1.00783
 Atom     7 has atomic number  8 and mass  15.99491
 Atom     8 has atomic number  8 and mass  15.99491
 Atom     9 has atomic number  8 and mass  15.99491
 Atom    10 has atomic number  1 and mass   1.00783
 Atom    11 has atomic number  6 and mass  12.00000
 Atom    12 has atomic number  1 and mass   1.00783
 Molecular mass:    90.03169 amu.
 Principal axes and moments of inertia in atomic units:
                           1         2         3
     Eigenvalues --   209.266131090.065951179.09045
           X            0.99994  -0.01104  -0.00021
           Y            0.01104   0.99982  -0.01556
           Z            0.00038   0.01555   0.99988
 This molecule is an asymmetric top.
 Rotational symmetry number  1.
 Rotational temperatures (Kelvin)      0.41389     0.07946     0.07346
 Rotational constants (GHZ):           8.62414     1.65563     1.53062
    1 imaginary frequencies ignored.
 Zero-point vibrational energy     223914.1 (Joules/Mol)
                                   53.51676 (Kcal/Mol)
 Warning -- explicit consideration of   9 degrees of freedom as
           vibrations may cause significant error
 Vibrational temperatures:     72.37   172.56   185.96   303.79   424.81
          (Kelvin)            567.70   620.47   671.78   745.71  1116.65
                             1204.15  1300.24  1329.12  1405.52  1453.59
                             1664.20  1671.02  1737.13  1883.31  1949.25
                             1989.05  2302.06  2453.56  4020.61  4470.75
                             4473.52  4507.49  4537.52  4627.44
 
 Zero-point correction=                           0.085284 (Hartree/Particle)
 Thermal correction to Energy=                    0.092775
 Thermal correction to Enthalpy=                  0.093719
 Thermal correction to Gibbs Free Energy=         0.053278
 Sum of electronic and zero-point Energies=            -21.447291
 Sum of electronic and thermal Energies=               -21.439800
 Sum of electronic and thermal Enthalpies=             -21.438856
 Sum of electronic and thermal Free Energies=          -21.479297
 
                     E (Thermal)             CV                S
                      KCal/Mol        Cal/Mol-Kelvin    Cal/Mol-Kelvin
 Total                   58.217             24.870             85.115
 Electronic               0.000              0.000              0.000
 Translational            0.889              2.981             39.405
 Rotational               0.889              2.981             27.089
 Vibrational             56.440             18.908             18.621
 Vibration     1          0.595              1.977              4.806
 Vibration     2          0.609              1.933              3.101
 Vibration     3          0.612              1.924              2.957
 Vibration     4          0.643              1.824              2.034
 Vibration     5          0.689              1.683              1.444
 Vibration     6          0.762              1.482              0.983
 Vibration     7          0.792              1.402              0.855
 Vibration     8          0.824              1.323              0.746
 Vibration     9          0.873              1.209              0.614
                       Q            Log10(Q)             Ln(Q)
 Total Bot       0.311764D-24        -24.506174        -56.427551
 Total V=0       0.527093D+15         14.721887         33.898398
 Vib (Bot)       0.500131D-37        -37.300916        -85.888534
 Vib (Bot)    1  0.410961D+01          0.613801          1.413329
 Vib (Bot)    2  0.170391D+01          0.231447          0.532926
 Vib (Bot)    3  0.157761D+01          0.198000          0.455911
 Vib (Bot)    4  0.940214D+00         -0.026773         -0.061647
 Vib (Bot)    5  0.645805D+00         -0.189899         -0.437258
 Vib (Bot)    6  0.453507D+00         -0.343416         -0.790744
 Vib (Bot)    7  0.403637D+00         -0.394009         -0.907239
 Vib (Bot)    8  0.362196D+00         -0.441056         -1.015569
 Vib (Bot)    9  0.311918D+00         -0.505960         -1.165015
 Vib (V=0)       0.845562D+02          1.927145          4.437416
 Vib (V=0)    1  0.463992D+01          0.666510          1.534697
 Vib (V=0)    2  0.227576D+01          0.357126          0.822313
 Vib (V=0)    3  0.215495D+01          0.333437          0.767767
 Vib (V=0)    4  0.156490D+01          0.194485          0.447819
 Vib (V=0)    5  0.131674D+01          0.119500          0.275159
 Vib (V=0)    6  0.117503D+01          0.070050          0.161296
 Vib (V=0)    7  0.114259D+01          0.057891          0.133298
 Vib (V=0)    8  0.111740D+01          0.048210          0.111007
 Vib (V=0)    9  0.108932D+01          0.037154          0.085550
 Electronic      0.100000D+01          0.000000          0.000000
 Translational   0.335774D+08          7.526047         17.329364
 Rotational      0.185650D+06          5.268695         12.131619
 ***** Axes restored to original set *****
 -------------------------------------------------------------------
 Center     Atomic                   Forces (Hartrees/Bohr)
 Number     Number              X              Y              Z
 -------------------------------------------------------------------
      1        6          -0.000338272    0.000284429    0.000819207
      2        6          -0.000704574   -0.000138751   -0.000984657
      3        1           0.000037822    0.000157252   -0.000219881
      4        1          -0.000073102   -0.000066925   -0.000056492
      5        1           0.000008846    0.000291921    0.000115312
      6        1          -0.000097921   -0.000027694    0.000040473
      7        8           0.003931752    0.000379071    0.000705426
      8        8          -0.001637046    0.000113700   -0.000545312
      9        8           0.000553097   -0.000951721    0.000642971
     10        1          -0.000495336   -0.001680904    0.000640601
     11        6          -0.002114486    0.002120907   -0.001685971
     12        1           0.000929221   -0.000481286    0.000528323
 -------------------------------------------------------------------
 Cartesian Forces:  Max     0.003931752 RMS     0.001053199

 GradGradGradGradGradGradGradGradGradGradGradGradGradGradGradGradGradGrad
 Berny optimization.
 Search for a local minimum.
 Step number   1 out of a maximum of    2
 All quantities printed in internal units (Hartrees-Bohrs-Radians)
 Second derivative matrix not updated -- analytic derivatives used.
 ITU=  0
     Eigenvalues ---   -0.08215   0.00052   0.00159   0.00347   0.00597
     Eigenvalues ---    0.00920   0.01231   0.02657   0.03130   0.03508
     Eigenvalues ---    0.03698   0.06885   0.07240   0.07272   0.09816
     Eigenvalues ---    0.11580   0.12905   0.13356   0.15785   0.21540
     Eigenvalues ---    0.24974   0.31441   0.51384   0.51466   0.69847
     Eigenvalues ---    0.79427   0.83139   0.86349   1.33014   1.50651
 Eigenvalue     1 is  -8.21D-02 should be greater than     0.000000 Eigenvector:
                          X7        Z7        X2        X1        Y7
   1                    0.72962   0.34733  -0.29077  -0.27677  -0.20870
                          Z2        X8        X12       Z8        Y12
   1                   -0.18560  -0.17669  -0.10858  -0.09844  -0.09233
 Angle between quadratic step and forces=  76.63 degrees.
 Linear search not attempted -- first point.
 B after Tr=    -0.003320   -0.030878   -0.002729
         Rot=    0.999987   -0.004634    0.000066   -0.001946 Ang=  -0.58 deg.
 Variable       Old X    -DE/DX   Delta X   Delta X   Delta X     New X
                                 (Linear)    (Quad)   (Total)
    X1       -2.19669  -0.00034   0.00000   0.01661   0.01551  -2.18117
    Y1       -0.41442   0.00028   0.00000  -0.01019  -0.00414  -0.41856
    Z1       -4.92456   0.00082   0.00000   0.02724   0.02046  -4.90410
    X2       -2.89143  -0.00070   0.00000  -0.01433  -0.01911  -2.91054
    Y2        0.41503  -0.00014   0.00000   0.04349   0.02571   0.44074
    Z2       -2.62378  -0.00098   0.00000  -0.01131  -0.01011  -2.63390
    X3       -1.50961   0.00004   0.00000   0.06271   0.05702  -1.45259
    Y3        0.84938   0.00016   0.00000  -0.05197  -0.02963   0.81975
    Z3       -6.36372  -0.00022   0.00000   0.01090   0.01562  -6.34811
    X4       -2.37000  -0.00007   0.00000  -0.00383   0.00279  -2.36721
    Y4       -2.37447  -0.00007   0.00000  -0.01752  -0.00768  -2.38215
    Z4       -5.43523  -0.00006   0.00000   0.05950   0.03448  -5.40075
    X5       -2.83437   0.00001   0.00000   0.03830   0.02576  -2.80860
    Y5        2.38746   0.00029   0.00000   0.04832   0.02644   2.41390
    Z5       -2.12683   0.00012   0.00000  -0.03160  -0.01208  -2.13891
    X6       -3.68175  -0.00010   0.00000  -0.02948  -0.02963  -3.71139
    Y6       -0.84987  -0.00003   0.00000   0.07950   0.04561  -0.80427
    Z6       -1.24201   0.00004   0.00000   0.01357   0.00320  -1.23881
    X7        0.86138   0.00393   0.00000   0.05436   0.05393   0.91531
    Y7       -0.62446   0.00038   0.00000  -0.05178  -0.05752  -0.68198
    Z7       -2.32052   0.00071   0.00000  -0.00379  -0.01255  -2.33307
    X8        3.48217  -0.00164   0.00000   0.00532   0.00847   3.49064
    Y8       -1.60059   0.00011   0.00000  -0.03643  -0.04388  -1.64447
    Z8       -0.99123  -0.00055   0.00000  -0.06241  -0.07975  -1.07098
    X9        5.15138   0.00055   0.00000  -0.06544  -0.07679   5.07460
    Y9        2.08260  -0.00095   0.00000   0.03205   0.04064   2.12324
    Z9       -2.18152   0.00064   0.00000   0.04754   0.06526  -2.11626
   X10        1.53572  -0.00050   0.00000  -0.00034  -0.00721   1.52850
   Y10        1.01733  -0.00168   0.00000  -0.02522  -0.02378   0.99355
   Z10       -2.86611   0.00064   0.00000   0.01838   0.02520  -2.84091
   X11        5.26293  -0.00211   0.00000  -0.02074  -0.02413   5.23879
   Y11        0.03303   0.00212   0.00000   0.01070   0.01124   0.04427
   Z11       -1.17644  -0.00169   0.00000  -0.01149  -0.01298  -1.18943
   X12        6.99504   0.00093   0.00000  -0.00588  -0.00660   6.98845
   Y12       -0.69191  -0.00048   0.00000   0.01795   0.01701  -0.67490
   Z12       -0.26236   0.00053   0.00000  -0.02882  -0.03674  -0.29910
         Item               Value     Threshold  Converged?
 Maximum Force            0.003932     0.000450     NO 
 RMS     Force            0.001053     0.000300     NO 
 Maximum Displacement     0.079747     0.001800     NO 
 RMS     Displacement     0.034262     0.001200     NO 
 Predicted change in Energy=-3.453783D-04
 GradGradGradGradGradGradGradGradGradGradGradGradGradGradGradGradGradGrad

 Unable to Open any file for archive entry.
 1\1\GINC-BARADVALA\Freq\External='xtb-gaussian -P 4'\ZDO\C3H6O3\XRAY\1
 1-Feb-2024\0\\# freq=noraman external="xtb-gaussian -P 4"\\Simple test
 \\0,1\C,-1.1624378585,-0.2192992424,-2.6059629677\C,-1.5300771364,0.21
 96267556,-1.3884470092\H,-0.7988486859,0.4494711812,-3.367537388\H,-1.
 2541507316,-1.2565145774,-2.8761978753\H,-1.4998828717,1.2633877369,-1
 .1254699788\H,-1.9482990749,-0.4497326001,-0.6572435114\O,0.4558221359
 ,-0.3304515518,-1.2279662861\O,1.8426832034,-0.8469950689,-0.524538503
 7\O,2.7259933152,1.1020670406,-1.1544104092\H,0.812665519,0.5383456896
 ,-1.516681834\C,2.785020437,0.0174797877,-0.6225474528\H,3.7016183114,
 -0.3661428202,-0.1388350916\\Version=ES64L-G16RevC.01\HF=-21.532575\RM
 SD=0.000e+00\RMSF=1.053e-03\ZeroPoint=0.0852844\Thermal=0.0927746\ETot
 =-21.4398004\HTot=-21.4388562\GTot=-21.479297\Dipole=-1.1296445,0.0561
 669,-0.3929395\PG=C01 [X(C3H6O3)]\NImag=1\\0.16014127,0.06041601,0.586
 19946,-0.18480442,0.08170206,0.69432366,-0.06071567,0.03552359,0.15058
 401,0.18682890,0.02208901,-0.12204730,-0.13660134,0.04178163,0.5920454
 9,0.10121438,-0.12115657,-0.41680008,-0.22615257,0.08228185,0.66044541
 ,-0.06405456,-0.05923285,0.06655483,-0.00364408,-0.00664699,0.00952214
 ,0.06215959,-0.06028908,-0.15304601,0.11976287,0.00273489,0.00638409,-
 0.00550173,0.06646057,0.16256745,0.06624588,0.11655635,-0.17083471,0.0
 1167065,0.01584542,-0.02293768,-0.07774397,-0.12861370,0.19411060,-0.0
 3494147,-0.02635245,-0.00190873,0.00143781,0.01010449,0.00357012,0.001
 89939,-0.00995435,-0.00072782,0.02962566,-0.02545827,-0.29967238,-0.06
 261289,0.00036694,-0.01229640,-0.00642902,-0.00265894,-0.01824664,-0.0
 0319315,0.02835450,0.32720223,-0.00155890,-0.05911652,-0.05586336,-0.0
 0073968,-0.02694977,-0.00902612,0.00310553,0.01755258,0.00436159,-0.00
 146742,0.07306811,0.06479533,0.00131468,0.00560192,0.00188928,-0.03408
 017,-0.01249761,0.00212265,-0.00373012,0.00119201,-0.00139513,0.008464
 95,-0.00097555,0.00367306,0.03052176,0.00000776,-0.01166113,-0.0062168
 3,-0.01158438,-0.29823816,-0.06097318,0.00037343,0.00123011,0.00099346
 ,-0.00035113,0.00112971,-0.00207994,0.01182453,0.32637049,-0.00052161,
 -0.02885037,-0.00954563,0.00151513,-0.05747799,-0.05546745,-0.00204055
 ,-0.00077364,0.00033514,0.00498792,-0.00231268,-0.00296851,-0.00585553
 ,0.07129568,0.06299084,-0.00172575,-0.00393063,0.00564595,-0.07246429,
 -0.06769196,0.07401812,0.00836342,-0.00071144,0.00363627,-0.00363842,0
 .00064815,-0.00165102,0.00212400,-0.00209513,0.00219179,0.07400119,0.0
 0296221,0.00597173,-0.00466855,-0.06920960,-0.15518800,0.11728950,-0.0
 0043873,0.00088937,-0.00247156,0.00134357,0.00123408,-0.00097853,-0.01
 079031,-0.01842444,0.01704437,0.07561724,0.16508503,0.01232629,0.01648
 872,-0.02405938,0.07312129,0.11413677,-0.16228498,0.00508494,-0.002585
 59,-0.00264165,-0.00177709,0.00124583,0.00014237,-0.00114810,-0.003209
 08,0.00413506,-0.08637415,-0.12536038,0.18380521,0.03680977,-0.0263679
 2,-0.04851053,0.01397779,0.01565094,0.07545707,0.00128000,0.00128610,-
 0.00167646,-0.00237650,-0.00270535,-0.00146007,-0.00310856,0.00266359,
 0.00037513,-0.00695725,-0.00081162,0.00040811,0.05323390,-0.00929287,-
 0.00372020,0.01616013,-0.00842120,-0.01718282,-0.02076598,0.00153835,-
 0.00091193,0.00155776,-0.00373167,0.00159815,-0.00186942,0.00518053,-0
 .00161582,0.00108909,-0.00244497,0.00101823,-0.00112074,0.15781967,0.3
 5521911,0.03100690,-0.01251624,-0.02715180,0.00117903,0.00896487,0.021
 27918,-0.00301311,0.00044058,-0.00225224,-0.00236682,-0.00050181,-0.00
 138200,0.00107358,0.00143754,0.00068545,0.00250463,-0.00184270,0.00183
 104,-0.07702250,-0.08637298,0.07039416,-0.03510742,0.01646459,0.014186
 87,-0.02700597,-0.00148101,-0.04296575,-0.00145178,-0.00115429,0.00109
 969,0.00000556,0.00224238,0.00030304,-0.00032013,-0.00171493,-0.000654
 64,0.00115048,0.00127592,-0.00121120,0.03260275,-0.00097406,0.02034333
 ,0.29289589,0.00647171,-0.00023659,-0.00498880,0.00530915,0.00433079,0
 .01071152,0.00016344,0.00027465,-0.00043675,0.00047800,-0.00043714,0.0
 0016256,-0.00037544,0.00050136,0.00022183,-0.00007086,-0.00012385,0.00
 021270,-0.00192314,-0.05158671,0.00858960,0.16921024,0.34838667,-0.019
 12460,0.00825258,0.01012191,-0.01075435,-0.00082814,-0.01386594,-0.000
 24512,-0.00034826,0.00064378,0.00025332,0.00067976,0.00031032,-0.00040
 875,-0.00083210,-0.00042360,-0.00000090,0.00069108,-0.00071625,0.02336
 632,0.00843205,-0.02951302,0.00255669,-0.08876211,0.08490718,0.0012307
 7,-0.00024664,0.00065870,0.00123309,-0.00026603,0.00039986,0.00002730,
 -0.00001396,0.00017494,0.00005677,-0.00005253,0.00007021,0.00015090,-0
 .00011020,-0.00003334,0.00007464,-0.00005742,0.00003375,-0.00442486,-0
 .01266259,0.00503947,-0.00760886,-0.05173328,0.01375059,0.07538938,-0.
 00488323,0.00160129,0.00138278,-0.00351413,-0.00050519,-0.00435621,0.0
 0003546,-0.00027713,0.00017037,0.00007240,0.00044823,0.00013267,-0.000
 00414,-0.00022324,-0.00004032,0.00016276,0.00032560,-0.00032821,0.0194
 4417,-0.00355888,0.00684133,-0.05263995,-0.08481921,0.03467417,-0.0108
 3329,0.64658362,0.00243825,-0.00060840,-0.00024027,0.00198676,0.000092
 30,0.00245085,0.00011183,-0.00003117,-0.00003524,0.00002162,-0.0002586
 1,0.00001719,-0.00006549,0.00013353,-0.00013787,-0.00010250,-0.0001339
 6,0.00015896,-0.00971160,-0.00352986,-0.00366039,0.01410703,0.03489324
 ,0.01297415,0.02136745,-0.29640951,0.17370732,-0.00246649,-0.00246137,
 -0.00235118,-0.00480917,-0.00238392,0.00216081,-0.00066631,0.00028850,
 -0.00111960,-0.00048276,0.00028907,-0.00032268,-0.00108066,0.00078887,
 0.00029695,-0.00095735,0.00019578,-0.00045163,-0.07037448,-0.11827159,
 0.03575629,-0.00540719,0.01385460,-0.00878106,0.00793114,-0.00181504,0
 .00472509,0.08166671,-0.00135717,0.00003354,-0.00124971,0.00024400,0.0
 0224445,0.00015130,0.00044583,0.00062658,-0.00007935,0.00023888,-0.000
 25166,0.00024953,0.00089303,0.00053292,-0.00018121,0.00071861,-0.00029
 167,0.00007056,-0.11845412,-0.29341437,0.09330557,0.00989333,-0.011433
 04,0.00940992,0.00756556,-0.00267384,0.00203763,0.09929757,0.29808802,
 -0.00297348,-0.00229841,-0.00024939,0.00102854,0.00053852,0.00077093,-
 0.00102807,0.00006049,-0.00082757,-0.00051174,-0.00000989,-0.00038626,
 0.00003171,-0.00030367,0.00028355,-0.00008488,0.00025156,-0.00016873,0
 .03608634,0.09256483,-0.04102135,-0.00723387,0.01079915,-0.00548652,0.
 00021532,-0.00109224,-0.00331657,-0.02317612,-0.10233983,0.04863621,0.
 00246752,-0.00069200,-0.00283187,0.00138497,0.00133149,0.00348097,-0.0
 0012129,0.00024967,-0.00030521,-0.00011590,-0.00021834,-0.00002841,-0.
 00023994,0.00038549,-0.00020275,-0.00012969,-0.00017073,0.00009318,-0.
 06037031,-0.00204895,-0.01905229,-0.19605203,-0.13460585,0.01650515,-0
 .07287800,0.04355285,-0.02460594,-0.00438178,0.00017831,-0.00234946,0.
 49143804,0.01121849,-0.00405071,-0.00273253,0.00839821,0.00047705,0.01
 064778,0.00005881,0.00060168,-0.00036908,-0.00021862,-0.00081348,-0.00
 022414,-0.00003539,0.00049629,0.00000173,-0.00030189,-0.00056998,0.000
 50600,-0.05007414,0.01550280,-0.02265538,-0.12156839,-0.21117416,0.034
 31397,0.03848516,-0.52695079,0.23268338,0.01155954,0.00760241,0.001565
 76,0.04223150,0.77127066,-0.00446114,0.00162797,0.00028299,-0.00343486
 ,0.00017344,-0.00401473,-0.00023854,0.00007235,0.00008846,-0.00004931,
 0.00032501,-0.00000473,0.00001276,-0.00026970,0.00016926,0.00020824,0.
 00016796,-0.00019241,0.00286614,-0.00708374,0.00602553,0.01052095,0.03
 006082,-0.06389561,-0.02219245,0.23431378,-0.17883065,-0.00765467,-0.0
 0221635,0.00136304,0.09017870,-0.27570656,0.31730901,-0.00295263,0.001
 27775,0.00088711,-0.00214322,0.00000997,-0.00282779,-0.00006156,-0.000
 08862,0.00014077,0.00006492,0.00016793,0.00007634,-0.00001672,-0.00018
 788,-0.00005850,0.00015902,0.00008369,-0.00010540,0.00970775,-0.006690
 66,0.00455151,-0.05370129,-0.00677857,-0.01711729,-0.00118227,0.010422
 14,-0.01027249,0.00102833,0.00033616,-0.00000427,-0.16100160,0.0602467
 2,-0.06575584,0.21009927,-0.00188457,0.00062830,0.00006281,-0.00162911
 ,-0.00002400,-0.00189925,-0.00009838,-0.00009221,0.00004022,0.00001637
 ,0.00010531,0.00005286,-0.00001357,-0.00009808,-0.00001649,0.00010012,
 0.00007391,-0.00005658,0.00347181,-0.00134755,0.00430961,-0.01955383,0
 .00631724,-0.00568291,0.02992522,-0.02995046,0.03113143,-0.00134200,-0
 .00106335,0.00026373,0.04980658,-0.05239177,0.01853501,-0.05879864,0.0
 7784268,0.00021245,-0.00008117,0.00001607,-0.00000395,-0.00017593,-0.0
 0054938,-0.00006990,-0.00003479,-0.00001049,-0.00002404,-0.00000066,0.
 00000418,0.00006997,0.00002430,-0.00005624,0.00000845,0.00001121,-0.00
 000925,-0.00017795,0.00093885,0.00476544,-0.01105214,-0.00146376,0.004
 94360,-0.01948448,0.02471138,-0.00308747,0.00091780,0.00084194,0.00040
 268,-0.06088206,0.02196907,-0.07830015,0.09048586,-0.04674044,0.071881
 01\\0.00033827,-0.00028443,-0.00081921,0.00070457,0.00013875,0.0009846
 6,-0.00003782,-0.00015725,0.00021988,0.00007310,0.00006692,0.00005649,
 -0.00000885,-0.00029192,-0.00011531,0.00009792,0.00002769,-0.00004047,
 -0.00393175,-0.00037907,-0.00070543,0.00163705,-0.00011370,0.00054531,
 -0.00055310,0.00095172,-0.00064297,0.00049534,0.00168090,-0.00064060,0
 .00211449,-0.00212091,0.00168597,-0.00092922,0.00048129,-0.00052832\\\
 @
 The archive entry for this job was punched.


 TRUTH, IN SCIENCE, CAN BE DEFINED AS THE WORKING HYPOTHESIS 
 BEST FITTED TO OPEN THE WAY TO THE NEXT BETTER ONE.

                              -- KONRAD LORENZ
 Job cpu time:       0 days  0 hours  0 minutes  0.7 seconds.
 Elapsed time:       0 days  0 hours  0 minutes  2.9 seconds.
 File lengths (MBytes):  RWF=      6 Int=      0 D2E=      0 Chk=      1 Scr=      1
 Normal termination of Gaussian 16 at Sun Feb 11 17:18:29 2024.
