12
 energy: -21.619203658466 gnorm: 0.000744487211 xtb: 6.6.1 (8d0f1dd)
C            2.19264911768779        0.06743464661051       -0.73125417765758
H            2.48208487790779       -0.82276124719531       -1.26532898475619
H            2.20733689600875        1.00123086178233       -1.27007383817378
C            2.19252701302586        0.06686043663390        0.73075777408771
H            2.20689784391522        1.00062396801393        1.26984806077960
H            2.48205449292780       -0.82337183395979        1.26460166480625
O           -1.29646693372005       -1.13924123234324       -0.00157395492878
O            0.81768514673531       -0.14700646661985       -0.00047703170977
H           -0.50625345096531        1.02145577223625        0.00122500002544
C           -1.96700797341015       -0.13970842200753       -0.00004099485389
H           -3.06769467768498       -0.14867275474262        0.00059288809232
O           -1.50331635242808        1.07716027159147        0.00170059428826
12
 energy: -21.614735970747 gnorm: 0.000407227072 xtb: 6.6.1 (8d0f1dd)
C            2.19227759693942        0.06703351467464       -0.73072123961775
H            2.48829498480634       -0.82014679428040       -1.26535323098170
H            2.19032514028157        1.00044589793881       -1.26965960150331
C            2.19207485848451        0.06667267491893        0.73023982923025
H            2.19005441658423        0.99984904532142        1.26958224076706
H            2.48808646089126       -0.82074871332925        1.26447243147593
O           -1.28554405932133       -1.13151458740672       -0.00157073996774
O            0.80224615002203       -0.16874012915963       -0.00050396056819
H           -0.49950307150399        1.01982317211301        0.00119962150359
C           -1.96006355766592       -0.13449799801545        0.00011748947775
H           -3.06050637978859       -0.14687170463558        0.00052398636022
O           -1.49724653972958        1.08269962186028        0.00165017382348
12
 energy: -21.609160260730 gnorm: 0.000548845016 xtb: 6.6.1 (8d0f1dd)
C            2.18936949820991        0.06860002795675       -0.72988739382161
H            2.50452811418898       -0.81273806811481       -1.26268445314819
H            2.15521476557661        0.99911733647459       -1.27207938889364
C            2.18938709197724        0.06822964799244        0.72952207820475
H            2.15550205240451        0.99849329010970        1.27212198150440
H            2.50480108543526       -0.81333004427106        1.26179479261410
O           -1.28078339529539       -1.12702581768342       -0.00163421683736
O            0.78450619264193       -0.20914508126121       -0.00026643349014
H           -0.48171939800640        1.01256047934299        0.00113040834044
C           -1.95007328957322       -0.12623821931158        0.00003572119258
H           -3.05048364869947       -0.13222178163282        0.00040297751248
O           -1.47975306886003        1.08770223039848        0.00152092682179
12
 energy: -21.603000231649 gnorm: 0.000557422678 xtb: 6.6.1 (8d0f1dd)
C            2.18685920861724        0.06991870081537       -0.72876079723396
H            2.51444059401735       -0.80583357733334       -1.26258267100058
H            2.12473204646923        0.99838461326776       -1.27165638283818
C            2.18722091130272        0.06960184671951        0.72862651934027
H            2.12581084945981        0.99782741691196        1.27176003072108
H            2.51550215791238       -0.80637606246730        1.26159082012099
O           -1.27282217322933       -1.12075810314849       -0.00174153333891
O            0.76592120872588       -0.24488769970280        0.00017943134520
H           -0.46430682694402        1.00356055793985        0.00119837571627
C           -1.94008560762009       -0.11803287718248       -0.00011931206004
H           -3.04020364014451       -0.12200264577212        0.00008797936383
O           -1.46257272856671        1.09260182995212        0.00139453986363
12
 energy: -21.596291954509 gnorm: 0.000707696076 xtb: 6.6.1 (8d0f1dd)
C            2.18763510337732        0.06997932242697       -0.72750488159466
H            2.51998729584870       -0.80282893424432       -1.26283115199665
H            2.10825397580732        0.99683980129889       -1.27020502183144
C            2.18742724986971        0.06959126112372        0.72711972051648
H            2.10818769352657        0.99623433485121        1.27021360554702
H            2.51992276388934       -0.80343950925013        1.26199052211617
O           -1.25926398816275       -1.11251567294447       -0.00163654993820
O            0.74662152577199       -0.26926772144547       -0.00052470526924
H           -0.45816363185446        1.00488979540577        0.00105239017561
C           -1.93153158408461       -0.11260763312218        0.00009842407480
H           -3.03148304965030       -0.12157817756403        0.00063588026852
O           -1.45709735433888        1.09870713346407        0.00156876793120
12
 energy: -21.589099009328 gnorm: 0.000546056657 xtb: 6.6.1 (8d0f1dd)
C            2.18685675290873        0.07099546197166       -0.72577924144081
H            2.52565195392963       -0.79867174674102       -1.26173877100948
H            2.08735115687951        0.99487783331382       -1.26970681149048
C            2.18692081506938        0.07043915836961        0.72542280157812
H            2.08760819879309        0.99395500509459        1.27000011008807
H            2.52591501157063       -0.79959931239437        1.26063195010951
O           -1.24589718982633       -1.10450290162500       -0.00097254858038
O            0.72657500016509       -0.29714007990748       -0.00032866144781
H           -0.44884114585914        1.00463871621387        0.00085452701678
C           -1.92182506203377       -0.10628215310226        0.00024916868141
H           -3.02147773632926       -0.11933338650972        0.00018133483012
O           -1.44834175526759        1.10462740531633        0.00116314166455
12
 energy: -21.581520899071 gnorm: 0.000246394504 xtb: 6.6.1 (8d0f1dd)
C            2.18598502851299        0.07168563722109       -0.72373454313686
H            2.53323871893848       -0.79433687461143       -1.25976597873014
H            2.06400531666091        0.99134179017326       -1.26970875371465
C            2.18619256460341        0.07115398107821        0.72327876164712
H            2.06423900138879        0.99040735872668        1.26994042856250
H            2.53345656009652       -0.79526960421747        1.25866832382251
O           -1.23189215446589       -1.09673732958463       -0.00091013516228
O            0.70645379551957       -0.32728171817454       -0.00020698932680
H           -0.44010176971890        1.00871910936796        0.00104247944242
C           -1.91101065688154       -0.09979118132388        0.00005512483251
H           -3.01033764008072       -0.11688456908685        0.00017883983799
O           -1.43973276457366        1.11099740043164        0.00113944192528
12
 energy: -21.573691135904 gnorm: 0.000793035776 xtb: 6.6.1 (8d0f1dd)
C            2.18790078315580        0.07201377579581       -0.72112256981095
H            2.53179725231699       -0.79395862599049       -1.25900225662040
H            2.05622110243353        0.98965200332124       -1.26788737395158
C            2.18792180289390        0.07149565595545        0.72072020710020
H            2.05644197207937        0.98879820665844        1.26808985242511
H            2.53200748876816       -0.79482885175246        1.25790614750919
O           -1.21391740039894       -1.08668478697254       -0.00095438728518
O            0.68472028794081       -0.34345055363649       -0.00033801840997
H           -0.43838783058833        1.01344444974971        0.00108028617936
C           -1.90322006925658       -0.09540183230214        0.00008630784331
H           -3.00192520441409       -0.12392804008501        0.00017776113764
O           -1.43906418493066        1.11685259925850        0.00122104388287
12
 energy: -21.565754267531 gnorm: 0.000790938343 xtb: 6.6.1 (8d0f1dd)
C            2.18917900800457        0.07254180948696       -0.71812987067076
H            2.53047424426429       -0.79352632778037       -1.25706296843496
H            2.04402345872047        0.98687901434027       -1.26666355594957
C            2.18912055785010        0.07203828017752        0.71774142122464
H            2.04412608574242        0.98610822844613        1.26671474249722
H            2.53057772872497       -0.79432405650785        1.25605101475715
O           -1.19596054172449       -1.07812512952511       -0.00102055066882
O            0.66310849624636       -0.36258120797595       -0.00050498824339
H           -0.43480619605158        1.02391225907835        0.00122253680951
C           -1.89256119780446       -0.09033653865222        0.00011511829899
H           -2.99031783794031       -0.13171362041803        0.00015049265691
O           -1.43646780603238        1.12313128933032        0.00136360772267
12
 energy: -21.557903947035 gnorm: 0.000710552395 xtb: 6.6.1 (8d0f1dd)
C            2.18962913746307        0.07295747570202       -0.71476622916505
H            2.53152915333346       -0.79168491650728       -1.25509054867955
H            2.02990162390785        0.98364583742019       -1.26505750304558
C            2.18983627491241        0.07253574054060        0.71414539351291
H            2.02995509008710        0.98285488658052        1.26507509854848
H            2.53153728654761       -0.79245851817820        1.25407906493245
O           -1.17910843606560       -1.06931801855065       -0.00096409557141
O            0.64148903784902       -0.38358997310513       -0.00027012736289
H           -0.43002568454181        1.03161692138684        0.00137952433114
C           -1.88254401012819       -0.08437983018329        0.00003489605160
H           -2.97923063789471       -0.13738470175471       -0.00002435702202
O           -1.43247283547023        1.12920909664909        0.00143588346951
12
 energy: -21.550323154889 gnorm: 0.000629197543 xtb: 6.6.1 (8d0f1dd)
C            2.18944736890569        0.07375848458742       -0.71086150296127
H            2.53219125065665       -0.78935507952494       -1.25299868136589
H            2.01632430250826        0.98044035810220       -1.26321477704222
C            2.18950580657973        0.07338959154490        0.71033440603569
H            2.01646498971786        0.97978910814431        1.26316336422927
H            2.53229578035933       -0.79001454738072        1.25197583451370
O           -1.16265406184045       -1.06164792073562       -0.00101276376122
O            0.61889524161305       -0.40188302364670       -0.00039701955053
H           -0.42337854943686        1.03538374605659        0.00154746372687
C           -1.87284178221566       -0.07896754237001        0.00004228134291
H           -2.96854811328344       -0.14078854390967       -0.00014533164101
O           -1.42720623356416        1.13389936913224        0.00154372647328
12
 energy: -21.543158953796 gnorm: 0.000607695407 xtb: 6.6.1 (8d0f1dd)
C            2.19010305850559        0.07495602989560       -0.70672532103173
H            2.52789371204067       -0.78898708974045       -1.25020676579579
H            2.01067186020498        0.97894016799817       -1.26141374639903
C            2.19015770131825        0.07462157701796        0.70616300657954
H            2.01071572305836        0.97830606759675        1.26133918971353
H            2.52789431643193       -0.78962355015318        1.24919898456753
O           -1.14556330333348       -1.05351558579736       -0.00102543788852
O            0.59617518754591       -0.41362899306918       -0.00044163260974
H           -0.41929801540820        1.03764261430888        0.00155007447705
C           -1.86451768828629       -0.07433052412804        0.00006910588426
H           -2.95880322120118       -0.14838712821717       -0.00014654721708
O           -1.42493333087654        1.13801041428804        0.00161608971958
12
 energy: -21.536548949272 gnorm: 0.000659169877 xtb: 6.6.1 (8d0f1dd)
C            2.19034629229196        0.07603174185572       -0.70241890425426
H            2.52431587231989       -0.78805766322794       -1.24777220342981
H            2.00229436167454        0.97685497860643       -1.25921294190533
C            2.19017974376686        0.07566146774234        0.70193347247198
H            2.00227245655611        0.97627727751157        1.25909669428925
H            2.52431849704177       -0.78866327889007        1.24680809208359
O           -1.12956591717583       -1.04633580054218       -0.00110019582105
O            0.57430198887587       -0.42618650942572       -0.00060591695427
H           -0.41340445423177        1.04095205159634        0.00153063486557
C           -1.85552574094357       -0.06895749917110        0.00011404755062
H           -2.94813931228428       -0.15574151216934       -0.00005571402717
O           -1.42089778789157        1.14216874611396        0.00165993513047
12
 energy: -21.530593643423 gnorm: 0.000919763384 xtb: 6.6.1 (8d0f1dd)
C            2.19076963112155        0.07683075210600       -0.69823695979932
H            2.52091316475869       -0.78745425082106       -1.24539405529549
H            1.99677849180655        0.97513966516530       -1.25689495023833
C            2.19067747216891        0.07648792896579        0.69767665202998
H            1.99660708329325        0.97451225946941        1.25677467632379
H            2.52076293699075       -0.78807870283515        1.24442887381834
O           -1.11421014359200       -1.03927235563649       -0.00108005802968
O            0.55333232280231       -0.43614134925163       -0.00058027827491
H           -0.40923776558094        1.04355161058052        0.00150539620214
C           -1.84817087859992       -0.06433331060239        0.00012852963598
H           -2.93907444260425       -0.16297125640646       -0.00002016923088
O           -1.41865187256493        1.14573300926618        0.00166934285797
12
 energy: -21.525339560982 gnorm: 0.000208870166 xtb: 6.6.1 (8d0f1dd)
C            2.19119443398453        0.07758566527614       -0.69415997567767
H            2.51727434209174       -0.78700944872275       -1.24320649087320
H            1.99153910167494        0.97344307621110       -1.25458138323339
C            2.19100047253307        0.07723561066799        0.69363636640966
H            1.99128946792903        0.97284688152340        1.25442500837660
H            2.51704372618312       -0.78761273921011        1.24229856503130
O           -1.09979131577299       -1.03279953518861       -0.00118185243637
O            0.53371758764737       -0.44522167397476       -0.00069423796150
H           -0.40500556245944        1.04666420041496        0.00146727959962
C           -1.84124361480343       -0.05968081905530        0.00015866124118
H           -2.93024160203818       -0.17062898546327        0.00010302197674
O           -1.41628103696979        1.14918176752123        0.00171203754662
12
 energy: -21.520795166407 gnorm: 0.000658304700 xtb: 6.6.1 (8d0f1dd)
C            2.19173874944597        0.07816277380140       -0.69039900209568
H            2.51373142598082       -0.78684076199259       -1.24115533265105
H            1.98780800470647        0.97200496348956       -1.25243375819043
C            2.19153314093372        0.07782219749098        0.68986439335004
H            1.98749416142122        0.97140599608899        1.25226608606505
H            2.51342754038302       -0.78744279520271        1.24026399198670
O           -1.08630972108234       -1.02667812302136       -0.00121491377946
O            0.51556841590064       -0.45274047839116       -0.00071534969544
H           -0.40180951486450        1.04978857441115        0.00144455556887
C           -1.83539697598255       -0.05557778181836        0.00016763181854
H           -2.92244439640092       -0.17819700687787        0.00015649889653
O           -1.41484483044158        1.15229644202198        0.00173219872593
12
 energy: -21.516925853675 gnorm: 0.000917706273 xtb: 6.6.1 (8d0f1dd)
C            2.19241315585801        0.07861592919413       -0.68697484227341
H            2.50993228838052       -0.78705766119736       -1.23926111193900
H            1.98497452916957        0.97065474663001       -1.25059342438485
C            2.19205840455566        0.07827706422624        0.68647359476776
H            1.98455550762355        0.97019156336198        1.25029015947267
H            2.50948612448117       -0.78756029641272        1.23848652316315
O           -1.07384328052986       -1.02091092752020       -0.00139352915595
O            0.49896653749375       -0.45912244110583       -0.00091559911748
H           -0.39917141077823        1.05353336281182        0.00151869670949
C           -1.83006234274814       -0.05153432103906        0.00020514751692
H           -2.91493982853830       -0.18658579965710        0.00024725557707
O           -1.41387368496773        1.15550278070811        0.00189412966324
12
 energy: -21.513674308318 gnorm: 0.000439580891 xtb: 6.6.1 (8d0f1dd)
C            2.19305443580490        0.07892098028840       -0.68399565551977
H            2.50698319018222       -0.78724502826601       -1.23758552150130
H            1.98337257844653        0.96966568770262       -1.24883952652833
C            2.19280379566592        0.07863671942290        0.68340775323584
H            1.98287574343264        0.96913831008762        1.24855147991200
H            2.50648405570432       -0.78776711586651        1.23676774350517
O           -1.06233191573978       -1.01574970233314       -0.00134575447042
O            0.48403243309975       -0.46450160586545       -0.00078712868628
H           -0.39770881422226        1.05670747667287        0.00152510181037
C           -1.82611597239072       -0.04870414400837        0.00019350516754
H           -2.90917456117512       -0.19302629559556        0.00020220695971
O           -1.41377896880841        1.15792871776065        0.00188279611509
12
 energy: -21.510957808385 gnorm: 0.000750621627 xtb: 6.6.1 (8d0f1dd)
C            2.19377842821617        0.07895115895643       -0.68135162956363
H            2.50348728630318       -0.78784711533388       -1.23630264874836
H            1.98201401484472        0.96856373470468       -1.24732556361230
C            2.19363175018213        0.07869106894651        0.68072674717769
H            1.98151449250206        0.96801314142454        1.24703815849858
H            2.50297897404500       -0.78838149043341        1.23545912936346
O           -1.05190742178704       -1.01070024660205       -0.00130789383746
O            0.47055760804910       -0.46899295188170       -0.00070823392391
H           -0.39663637442286        1.06180557634084        0.00155544644305
C           -1.82211985742893       -0.04526138191498        0.00017249004935
H           -2.90283032327214       -0.20183832602141        0.00014430156638
O           -1.41397257723139        1.16100083181445        0.00187669658679
12
 energy: -21.508702032673 gnorm: 0.000578771043 xtb: 6.6.1 (8d0f1dd)
C            2.19467957090851        0.07876121259751       -0.67915305218323
H            2.50078261622292       -0.78876065875662       -1.23508959605666
H            1.98236084384441        0.96769477473008       -1.24595408829846
C            2.19485003586657        0.07855456756598        0.67834570148459
H            1.98179233513896        0.96702916653041        1.24565411311565
H            2.50018216259254       -0.78936630135197        1.23414330236540
O           -1.04223572697626       -1.00615758203746       -0.00113262985067
O            0.45897789370980       -0.47342317582698       -0.00036667365731
H           -0.39777930134917        1.06877832386141        0.00163769342423
C           -1.81936197671460       -0.04291121852105        0.00009045684314
H           -2.89803331207594       -0.20983418437199       -0.00004840021519
O           -1.41571914116775        1.16363907558070        0.00185017302815
12
 energy: -21.506823175043 gnorm: 0.000652606496 xtb: 6.6.1 (8d0f1dd)
C            2.19615099312857        0.07843034794129       -0.67698720290753
H            2.49851900505324       -0.78973404926604       -1.23399102148699
H            1.98200473164519        0.96637786834499       -1.24489516445372
C            2.19551125008794        0.07816530908082        0.67652677586897
H            1.98148768532316        0.96610296170914        1.24447142374184
H            2.49801927254225       -0.79005187610903        1.23334394475063
O           -1.03344716919237       -1.00196373343607       -0.00165184051549
O            0.44836219563122       -0.47634094468840       -0.00119959237404
H           -0.39871074351254        1.07481377661501        0.00164991890725
C           -1.81670409634234       -0.04094116854845        0.00027448785147
H           -2.89337890843333       -0.21693875495018        0.00032812648565
O           -1.41731821593099        1.16608426330692        0.00210714413161
12
 energy: -21.505247148924 gnorm: 0.000982926171 xtb: 6.6.1 (8d0f1dd)
C            2.19600776497900        0.07826275320099       -0.67573004854590
H            2.49721900400827       -0.78990034256561       -1.23326960489775
H            1.98174459784725        0.96613085255973       -1.24368983622802
C            2.19706680191415        0.07814712346026        0.67446688084327
H            1.98108495114311        0.96509314590141        1.24340164025977
H            2.49647316247211       -0.79078916118902        1.23194107177014
O           -1.02555139111097       -0.99858508003102       -0.00049568727677
O            0.43880227284037       -0.47924908554018        0.00067143711070
H           -0.39910463775419        1.07815500438998        0.00185574005639
C           -1.81487942068700       -0.03987938097777       -0.00014066243353
H           -2.89026408542725       -0.22093724663071       -0.00066284820611
O           -1.41810302022485        1.16755541742193        0.00162891754744
12
 energy: -21.503913152394 gnorm: 0.000458401991 xtb: 6.6.1 (8d0f1dd)
C            2.19747186424205        0.07793833126478       -0.67391426759836
H            2.49442916894125       -0.79119278678165       -1.23247454693900
H            1.98222272610653        0.96493618293742       -1.24303412347425
C            2.19756340385579        0.07770110120852        0.67320303038671
H            1.98197477761010        0.96437501096513        1.24274343932151
H            2.49418047755179       -0.79173999116724        1.23149631491342
O           -1.01835355949936       -0.99496808688981       -0.00106206156225
O            0.43048427793143       -0.48214752541748       -0.00041638669209
H           -0.40084458412060        1.08570807219548        0.00180975772824
C           -1.81263005699698       -0.03783355583638        0.00010500825588
H           -2.88576350741716       -0.22907718833016       -0.00031219441569
O           -1.42023898820484        1.17030443585138        0.00183303007551
12
 energy: -21.502781339485 gnorm: 0.000147797741 xtb: 6.6.1 (8d0f1dd)
C            2.20165103062504        0.07512919781513       -0.67265430946055
H            2.49575961083196       -0.79485612947647       -1.23146778821450
H            1.98570559656999        0.96146471982427       -1.24271733204408
C            2.20115192089273        0.07504976648568        0.67196593301661
H            1.98475430760854        0.96131024455236        1.24198303994240
H            2.49477808627585       -0.79502878961686        1.23089162743188
O           -1.00991421159081       -0.99074656553469       -0.00181405244677
O            0.42562172061598       -0.48576876775916       -0.00114354365701
H           -0.41433588422865        1.11266860831646        0.00199863307184
C           -1.81139755006299       -0.03825992091382        0.00019444005544
H           -2.88221459699324       -0.24098697098855        0.00029417778640
O           -1.43106403054441        1.17402860729563        0.00244617451798
12
 energy: -21.501796440524 gnorm: 0.000626183406 xtb: 6.6.1 (8d0f1dd)
C            2.20230418105813        0.07479042525985       -0.67155208548013
H            2.49509564993503       -0.79526509576205       -1.23087156843308
H            1.98504383767122        0.96067585552083       -1.24199693738677
C            2.20169718350857        0.07473570625490        0.67088572328468
H            1.98407943182010        0.96062278128916        1.24118931710617
H            2.49410767909855       -0.79534220080845        1.23036382555407
O           -1.00403144923701       -0.98799109820948       -0.00192762208399
O            0.41835573866586       -0.48713155228765       -0.00127265760389
H           -0.41474421586621        1.11529506386772        0.00207543191098
C           -1.81005595606414       -0.03735592267616        0.00026123681056
H           -2.87964851382997       -0.24442008947150        0.00027010645332
O           -1.43170756676014        1.17539012702280        0.00255222986772
12
 energy: -21.500925933041 gnorm: 0.000481241553 xtb: 6.6.1 (8d0f1dd)
C            2.20238146643042        0.07493655811463       -0.67060305256491
H            2.49349341388925       -0.79558525951770       -1.23029142131383
H            1.98500278997079        0.96042351643237       -1.24154739131103
C            2.20192960646175        0.07488451818448        0.66987119961444
H            1.98402472814975        0.96030894606525        1.24072976280771
H            2.49249149268657       -0.79571115185316        1.22972970886367
O           -0.99876805751781       -0.98592562238385       -0.00183045841436
O            0.41206405100419       -0.49039824033920       -0.00110472211412
H           -0.41483763000470        1.11844487258979        0.00211409359836
C           -1.80850743333148       -0.03631011787171        0.00022574134950
H           -2.87682529434462       -0.24796686149335        0.00016899180359
O           -1.43195313339411        1.17690284207242        0.00251454768064
12
 energy: -21.500145589499 gnorm: 0.000617758218 xtb: 6.6.1 (8d0f1dd)
C            2.20363309025974        0.07421102861173       -0.66966484486695
H            2.49292336398126       -0.79651285974084       -1.22989860495398
H            1.98534130047593        0.95940320611888       -1.24097397823883
C            2.20289947891010        0.07405661130737        0.66907785045595
H            1.98442081597382        0.95938620361394        1.24011925740400
H            2.49199355354545       -0.79657063177963        1.22951352080563
O           -0.99347453515721       -0.98288152830887       -0.00202883319406
O            0.40601210562486       -0.49049658901601       -0.00145627499457
H           -0.41701688853198        1.12330131101597        0.00202950634029
C           -1.80767765377795       -0.03544218344579        0.00029944357984
H           -2.87442044246262       -0.25307665737597        0.00036849390574
O           -1.43413818884139        1.17862608899918        0.00259146375661
12
 energy: -21.499435559674 gnorm: 0.000538404898 xtb: 6.6.1 (8d0f1dd)
C            2.20381367724820        0.07411258416213       -0.66900079135345
H            2.49154641514076       -0.79708920600341       -1.22948724995061
H            1.98602847432087        0.95912105302858       -1.24070188646672
C            2.20347953569046        0.07411378603165        0.66818305778023
H            1.98497759502463        0.95901090187867        1.23980989643180
H            2.49043316553153       -0.79721322714933        1.22888822082382
O           -0.98874254282015       -0.98096947030888       -0.00178326347998
O            0.40087491426345       -0.49356189699615       -0.00098179417046
H           -0.41827788973744        1.12794209973863        0.00224271118618
C           -1.80645800369766       -0.03468981549693        0.00019107683679
H           -2.87192187884758       -0.25695794448404        0.00006273433709
O           -1.43525746211705        1.18018513559904        0.00255428802497
12
 energy: -21.498778152866 gnorm: 0.000628773346 xtb: 6.6.1 (8d0f1dd)
C            2.20529070341850        0.07322637287650       -0.66821970764812
H            2.49114773590358       -0.79828602161707       -1.22913055382509
H            1.98686160060939        0.95798425446337       -1.24027663554960
C            2.20459326598001        0.07320001886360        0.66756552989375
H            1.98593497921114        0.95807570429896        1.23934859142680
H            2.49019693753897       -0.79822871648025        1.22871075796875
O           -0.98386062180963       -0.97811956598650       -0.00203252771429
O            0.39581684017192       -0.49362174919553       -0.00141722136343
H           -0.42154399384606        1.13414297525153        0.00226642985360
C           -1.80588608367247       -0.03416191335534        0.00027403472206
H           -2.86982062873608       -0.26212023394750        0.00017985689702
O           -1.43823473476925        1.18191287482818        0.00270844533820
12
 energy: -21.498159663329 gnorm: 0.000595786346 xtb: 6.6.1 (8d0f1dd)
C            2.20599469080859        0.07287176585830       -0.66759817663195
H            2.49019611012256       -0.79912294727034       -1.22875356357036
H            1.98799918270037        0.95748921899998       -1.23999460698574
C            2.20553912301355        0.07271985266553        0.66690337096135
H            1.98711379876277        0.95739258051550        1.23909678555534
H            2.48926012733594       -0.79925372528611        1.22828717686367
O           -0.97934037200545       -0.97601622602098       -0.00187311294373
O            0.39137412701557       -0.49568621976661       -0.00117579922892