12
 energy: -10.434361817693 gnorm: 29.127801185591 xtb: 6.6.1 (8d0f1dd)
C            2.20178653793928        0.07178764649099       -0.65840656966144
H            2.37554445357672       -0.82537288977021       -1.22690341832035
H            2.07115827621450        0.97413216428332       -1.23021392212026
C            2.20256184725716        0.07193742716167        0.65784608868655
H            2.07250525887557        0.97430866458385        1.22971754240282
H            2.37683269432172       -0.82518435873523        1.22625894687393
O           -0.76558897294683       -0.84261860986540        0.00005885123806
O            0.16983402742098       -0.40030816681352        0.00076599383038
H           -0.39034243210498        1.02382186363218        0.00135820343268
C           -1.81404313420296       -0.04085871569790       -0.00017382436064
H           -2.82319051168150       -0.39059656086676       -0.00109718621177
O           -1.45740104466962        1.22289553559720        0.00076529421029
