12
 energy: -21.534128262468 gnorm: 0.007078580211 xtb: 6.6.1 (8d0f1dd)
C            2.30280552346032        0.10141849925367       -0.67347153200057
H            2.48487008595636       -0.79902116591389       -1.23335837953698
H            2.17999861253523        1.00759270492983       -1.24195821557457
C            2.30313537871990        0.09832856062274        0.67160664239697
H            2.18079699051932        1.00192019531943        1.24429271890458
H            2.48559878629164       -0.80464731813239        1.22726149812221
O           -1.17544264329889       -0.87865470666030       -0.00122497424705
O            0.35338361193067       -0.29320667797996       -0.00072196403695
H            0.09574723717691        0.65474541686115        0.00157986343376
C           -2.05327934813947        0.05666350739249        0.00130659464694
H           -3.06866592256477       -0.37959179299846        0.00085898778902
O           -1.84845231254059        1.24845677728528        0.00380576007827
12
 energy: -21.534093865848 gnorm: 0.056236418834 xtb: 6.6.1 (8d0f1dd)
C            2.30266515940365        0.10139263855755       -0.67341951300368
H            2.48486845120742       -0.79901909891848       -1.23335554373806
H            2.17999822234308        1.00759434096699       -1.24195699171026
C            2.30298037286625        0.09830093675901        0.67155537694317
H            2.18080120029090        1.00192479862209        1.24429532874763
H            2.48560177163592       -0.80464317742127        1.22726493384738
O           -1.17574877444442       -0.87877800800296       -0.00124319886018
O            0.35399577353638       -0.29304044430560       -0.00070745756618
H            0.09579968973602        0.65475117320020        0.00157428546009
C           -2.05330632437071        0.05665490476027        0.00123004051087
H           -3.06870575775805       -0.37957773762929        0.00091510546851
O           -1.84845378439981        1.24844367339108        0.00382463387633
12
 energy: -21.534128782604 gnorm: 0.001409786361 xtb: 6.6.1 (8d0f1dd)
C            2.30284029894042        0.10142687657248       -0.67348676791371
H            2.48487125620272       -0.79901889124287       -1.23336654018860
H            2.17999902674460        1.00759315425075       -1.24196724988618
C            2.30315472028315        0.09833428735566        0.67162127598128
H            2.18079652457565        1.00192145691955        1.24430423489111
H            2.48559926804758       -0.80464472540552        1.22727313237419
O           -1.17553994205891       -0.87869584413582       -0.00123157476506
O            0.35345518276417       -0.29318304817582       -0.00071676403861
H            0.09576307703346        0.65474292799879        0.00157433336212
C           -2.05329482036616        0.05665638964981        0.00126407581554
H           -3.06869651865158       -0.37957742629259        0.00089165919958
O           -1.84845207346846        1.24844884248517        0.00381718514398
12
 energy: -21.534128225894 gnorm: 0.003942688575 xtb: 6.6.1 (8d0f1dd)
C            2.30272611941773        0.10140609798212       -0.67346209519308
H            2.48492003109109       -0.79901319395314       -1.23336537656138
H            2.18004076653352        1.00760780184020       -1.24196378143049
C            2.30305345437826        0.09831404479185        0.67159127095644
H            2.18080502079531        1.00192426286750        1.24429032648667
H            2.48561555605112       -0.80464829855426        1.22725445386149
O           -1.17539711362874       -0.87863227398511       -0.00116415731799
O            0.35345061047997       -0.29322246096826       -0.00077344565696
H            0.09574855422345        0.65472542037567        0.00157767889892
C           -2.05329637922307        0.05665908067371        0.00148141608087
H           -3.06870231131888       -0.37957291725364        0.00074024597128
O           -1.84846830875313        1.24845643616296        0.00377046387987
12
 energy: -21.534128785426 gnorm: 0.001365116392 xtb: 6.6.1 (8d0f1dd)
C            2.30277548503759        0.10141364544315       -0.67347087575682
H            2.48488697176422       -0.79902016293159       -1.23336011311070
H            2.18000915257968        1.00759686901192       -1.24196205287426
C            2.30311244780159        0.09832527348288        0.67161045273937
H            2.18080833584122        1.00192540688000        1.24429965298936
H            2.48561619686689       -0.80464577288768        1.22726761289501
O           -1.17546263230006       -0.87866241083475       -0.00124191925804
O            0.35345588336802       -0.29319798997610       -0.00071020640044
H            0.09575611019796        0.65473823497248        0.00157448240725
C           -2.05329669903457        0.05665415948309        0.00124071201883
H           -3.06870418266177       -0.37957299104739        0.00090917241674
O           -1.84846106941414        1.24844973838358        0.00382008190933
12
 energy: -21.534128379879 gnorm: 0.001657309517 xtb: 6.6.1 (8d0f1dd)
C            2.30290309684212        0.10144457763597       -0.67352187456100
H            2.48493631016343       -0.79900083573691       -1.23340143563580
H            2.18005897621548        1.00761803159558       -1.24198960025416
C            2.30310029958406        0.09832311014392        0.67159238704983
H            2.18072777038054        1.00190337545106        1.24427935870796
H            2.48553970135064       -0.80466157652821        1.22723375599207
O           -1.17554448536490       -0.87870572785995       -0.00091663080083
O            0.35345975898220       -0.29318693470409       -0.00094808710960
H            0.09576389562365        0.65473723192170        0.00159221497046
C           -2.05329675357744        0.05664722226492        0.00223751593064
H           -3.06871071013667       -0.37955649540977        0.00019698380420
O           -1.84844186001647        1.24844202120538        0.00362241188187
12
 energy: -21.534128781336 gnorm: 0.001046178683 xtb: 6.6.1 (8d0f1dd)
C            2.30280295852144        0.10142093315854       -0.67347889910222
H            2.48485455145277       -0.79902644111823       -1.23335280773451
H            2.17997015681512        1.00758889661905       -1.24196248455355
C            2.30317425800350        0.09834396779757        0.67162947194653
H            2.18082011108732        1.00193703150653        1.24430389477440
H            2.48563171745577       -0.80463382595723        1.22727939204238
O           -1.17552988002691       -0.87870083606276       -0.00131715534603
O            0.35345808173172       -0.29319640872513       -0.00063765831118
H            0.09576029489245        0.65473130093308        0.00158145646675
C           -2.05329661273379        0.05665034027284        0.00099608553583
H           -3.06871130642664       -0.37955248994494        0.00104946626346
O           -1.84843833072612        1.24844153150025        0.00388623799376
12
 energy: -21.534128781144 gnorm: 0.001408640996 xtb: 6.6.1 (8d0f1dd)
C            2.30280714981101        0.10141878201269       -0.67347818694690
H            2.48489250875003       -0.79901978793159       -1.23336258056787
H            2.18000921490026        1.00759694821111       -1.24196367803950
C            2.30308696473943        0.09831938559936        0.67160331919601
H            2.18079039596488        1.00192160570112        1.24429662817934
H            2.48560669075042       -0.80464919323274        1.22726326270111
O           -1.17545930141514       -0.87866673137263       -0.00120419887559
O            0.35345600035916       -0.29318963540127       -0.00074267047558
H            0.09574950656999        0.65474415357517        0.00157970672798
C           -2.05329095920663        0.05665043864348        0.00135165212713
H           -3.06870127303615       -0.37956824880447        0.00083737631357
O           -1.84845089814062        1.24844628297934        0.00379636963592
12
 energy: -21.534128835536 gnorm: 0.000850512736 xtb: 6.6.1 (8d0f1dd)
C            2.30279077450044        0.10141888973418       -0.67347595724839
H            2.48489204774320       -0.79901689956501       -1.23336315370551
H            2.18000972432916        1.00759989560670       -1.24196472482219
C            2.30314194442640        0.09833306236239        0.67161879392324
H            2.18078880884164        1.00192332106068        1.24429802269967
H            2.48560274844480       -0.80464608012985        1.22726519730897
O           -1.17549707563143       -0.87868460095051       -0.00121261536927
O            0.35345562351974       -0.29319398486665       -0.00074786729421
H            0.09575400439381        0.65473654458257        0.00157565687753
C           -2.05329327390450        0.05664945121557        0.00132731517939
H           -3.06870677882750       -0.37955924382077        0.00085348374314
O           -1.84844254778912        1.24844364475029        0.00380284868328
