10
 energy: 53.914673074835 gnorm: 73.212006970983 xtb: 6.6.1 (8d0f1dd)
C           -3.82663066946632       -1.17080303735151       -0.69124619752962
C           -3.69138748136671       -0.25280346731879        0.27114858439364
H           -3.30819881362703       -1.07993756344203       -1.62859805968578
H           -4.51351906265060       -1.99286114364104       -0.59070197515270
H           -3.09727751300665        0.63458991219542        0.13179850761496
H           -4.28454839087538       -0.28554848043936        1.17046958923804
Br          -1.82429451511172       -1.83889787063298        0.76409305467291
Br          -1.07840026288673       -2.67540808551633        1.71300350865434
Br           0.87372816999425       -1.59846571009720       -0.84879152007686
H            0.70887623355005        2.13081005029079        2.81108422790872
