8
 energy: -14.524944295137 gnorm: 0.000221285007 xtb: 6.6.1 (8d0f1dd)
C           -3.43568059282992       -0.41022851995982       -0.44790807160333
C           -3.49307954877013       -0.37631268290421        0.99868191049542
H           -3.44448884953646        0.55282027883754       -0.97345586657325
H           -4.06046499486893       -1.15396946924058       -0.95802395030705
H           -3.52898315327512        0.60638535885450        1.47945380704888
H           -4.14482758211297       -1.10230053567934        1.49496550554799
Br          -1.30721028508071       -1.17059182799632        0.47288906533703
Br           0.43311942847248       -1.80135503391209        0.27616396605440
