8
 energy: -14.274998229699 gnorm: 4.679044717592 xtb: 6.6.1 (8d0f1dd)
C           -3.44011234465976       -0.40819171288054       -0.45529157021868
C           -3.48766139627760       -0.37847825220139        0.99592399295461
H           -3.45617400634220        0.55686237009758       -0.97631132748534
H           -4.06879757828723       -1.15133606249605       -0.96089864015349
H           -3.51312872824890        0.60159835908087        1.48127943900897
H           -4.13336723545547       -1.10671036819429        1.49616226923451
Br          -1.35230873440287       -1.15572167619087        0.46972208725125
Br           0.46993444567226       -1.81357508921563        0.29218011540826
8
 energy: -8.533547192610 gnorm: 25.077937009210 xtb: 6.6.1 (8d0f1dd)
C           -3.49082138740521       -0.39004308942575       -0.47716414322464
C           -3.56044766419371       -0.35201771501959        1.01364589205852
H           -3.45604077396227        0.55672623281367       -0.97630181056268
H           -4.06860757700058       -1.15130297897783       -0.96088354103004
H           -3.51326294170318        0.60173674879609        1.48125078511616
H           -4.13355132453632       -1.10671806606168        1.49613383882352
Br          -1.09999659416310       -1.24685348119062        0.46140125710682
Br           0.34111268496260       -1.76708008293461        0.30468408771242
8
 energy: -14.381011044704 gnorm: 3.674858592935 xtb: 6.6.1 (8d0f1dd)
C           -3.44090744963397       -0.40793880857840       -0.45841301308969
C           -3.50653849690960       -0.37162535190646        1.00168278384022
H           -3.45613908571497        0.55687124681484       -0.97633193958245
H           -4.06877359113060       -1.15134988333408       -0.96090962866600
H           -3.51322055853738        0.60189883910782        1.48144385950591
H           -4.13361797868058       -1.10686546036616        1.49632933476360
Br          -1.27767717637968       -1.18269571559253        0.46316226101738
Br           0.41525875898501       -1.79384729814536        0.29580270821111
8
 energy: -14.519181909643 gnorm: 0.441786050350 xtb: 6.6.1 (8d0f1dd)
C           -3.45364003935098       -0.40330750035831       -0.43812059182344
C           -3.48000094310874       -0.38150245539972        0.99574179083446
H           -3.45118892916654        0.55403489016349       -0.97625180031807
H           -4.06330878614306       -1.15218700585784       -0.96085683315388
H           -3.51801184627278        0.60278426324169        1.47695398297718
H           -4.13804753995693       -1.10443939482212        1.49190178929594
Br          -1.30647034831517       -1.17209153083874        0.45380832780724
Br           0.42905285431243       -1.79884369812877        0.29958970038066
8
 energy: -14.512649943694 gnorm: 0.607594154144 xtb: 6.6.1 (8d0f1dd)
C           -3.42834036089032       -0.41264411517949       -0.45414272166294
C           -3.51237757532895       -0.37011412893471        0.98419502746044
H           -3.46310487409921        0.55799562167926       -0.97210955948279
H           -4.07526795079884       -1.14741324400723       -0.95679045435279
H           -3.50743387384394        0.59940956423632        1.48273984024192
H           -4.12805308757305       -1.10844751983971        1.49792709949133
Br          -1.31102019361325       -1.17013470194191        0.45964445395785
Br           0.44398233814580       -1.80420390801285        0.30130268034708
8
 energy: -14.524785542683 gnorm: 0.048159101397 xtb: 6.6.1 (8d0f1dd)
C           -3.43738296258888       -0.40935721683141       -0.45875831491221
C           -3.49605626912656       -0.37579428754818        0.98564310533302
H           -3.46301991106440        0.55856374715007       -0.97360283759138
H           -4.07541646618633       -1.14803464831108       -0.95827484149717
H           -3.50832047115009        0.59958686219240        1.48253974512475
H           -4.12859123986132       -1.10813386500483        1.49761062990735
Br          -1.30900019005525       -1.17098907988698        0.46523656723738
Br           0.43617193203107       -1.80139394376032        0.30237231239835
8
 energy: -14.523730457935 gnorm: 0.069265059676 xtb: 6.6.1 (8d0f1dd)
C           -3.46242276817462       -0.40020582469021       -0.41831419415015
C           -3.47212826532276       -0.38428847318499        1.03737159044011
H           -3.43041491003366        0.54710295519445       -0.98388140689799
H           -4.04350139629395       -1.15994106675564       -0.96854810147178
H           -3.54191980624776        0.61348926270627        1.47447615041190
H           -4.16377337029924       -1.09725474921325        1.48967810605650
Br          -1.30620969963385       -1.17207233590955        0.42153703252501
Br           0.43875463800407       -1.80238220014739        0.29044718908648
8
 energy: -14.524623373373 gnorm: 0.091310785629 xtb: 6.6.1 (8d0f1dd)
C           -3.43605718365774       -0.40983812471405       -0.45512657087104
C           -3.49227437688362       -0.37716799602629        0.99067968016463
H           -3.46007790342696        0.55748815305058       -0.97379867048950
H           -4.07262265313948       -1.14902090350612       -0.95848919618899
H           -3.51275024399267        0.60104779851630        1.48167667333293
H           -4.13298882791556       -1.10644001890209        1.49680567280210
Br          -1.30859559402485       -1.17108440501290        0.46019024595855
Br           0.43375120503912       -1.80053693540574        0.30082853129140
8
 energy: -14.523216237828 gnorm: 0.206841792590 xtb: 6.6.1 (8d0f1dd)
C           -3.43542508625010       -0.41026634528901       -0.46673136987298
C           -3.49963014532968       -0.37474157717441        0.97831788520802
H           -3.46752598232135        0.56032357220313       -0.97090734881847
H           -4.08041390605391       -1.14628770815943       -0.95569906431168
H           -3.50546707093822        0.59783491284498        1.48360357825868
H           -4.12557935881143       -1.10851054061275        1.49881799196286
Br          -1.30806966016773       -1.17099017633023        0.47232266060513
Br           0.44049563187064       -1.80291456948259        0.30304203296854
8
 energy: -14.524916719005 gnorm: 0.011540353962 xtb: 6.6.1 (8d0f1dd)
C           -3.44049403379638       -0.40821540988833       -0.45171537839672
C           -3.49023210301696       -0.37784362626771        0.99589003101422
H           -3.45690292738344        0.55644321760802       -0.97444815049979
H           -4.06957242175252       -1.15023886348825       -0.95914091230632
H           -3.51681062202425        0.60252569822840        1.48064146097318
H           -4.13702551433897       -1.10502363158863        1.49576870879123
Br          -1.30765577731193       -1.17143942051653        0.45638376712919
Br           0.43707782162268       -1.80176039608729        0.29938683929508
8
 energy: -14.524920568722 gnorm: 0.002081489316 xtb: 6.6.1 (8d0f1dd)
C           -3.43929510418875       -0.40876486612001       -0.45273231319010
C           -3.49058418788930       -0.37787629182025        0.99492968963198
H           -3.45765981287759        0.55686989664579       -0.97407685304674
H           -4.07069596919287       -1.14994026736522       -0.95883220476104
H           -3.51641509697260        0.60239661944026        1.48068162765592
H           -4.13686225179879       -1.10508953728595        1.49591053760739
Br          -1.30722388185603       -1.17140183483719        0.45755678702931
Br           0.43712072677417       -1.80174615065774        0.29932909507338
8
 energy: -14.524921958764 gnorm: 0.002532732324 xtb: 6.6.1 (8d0f1dd)
C           -3.43897747212316       -0.40877817855362       -0.45258227860774
C           -3.49015510316247       -0.37785126221294        0.99522533625874
H           -3.45776574163323        0.55694868105945       -0.97395766308146
H           -4.07065728396605       -1.15003788344117       -0.95867142563702
H           -3.51722733928194        0.60266093582664        1.48052679676527
H           -4.13734543955639       -1.10492234263655        1.49567109348325
Br          -1.30691864286892       -1.17165972931644        0.45761578639887
Br           0.43743144459038       -1.80191265272569        0.29893872042019
8
 energy: -14.524924973495 gnorm: 0.002992670643 xtb: 6.6.1 (8d0f1dd)
C           -3.43780190203347       -0.40956172938324       -0.45196615146648
C           -3.48891108845738       -0.37876869713489        0.99611917974453
H           -3.45731255553018        0.55698951581003       -0.97313827749565
H           -4.07129429128177       -1.14985492848811       -0.95804233308660
H           -3.51949363214594        0.60332572489343        1.47947711239524
H           -4.14010101791584       -1.10378298675550        1.49493952465811
Br          -1.30536297677666       -1.17159428197422        0.45818977850821
Br           0.43866188613945       -1.80230504896782        0.29718753274274
8
 energy: -14.524926006522 gnorm: 0.001416229574 xtb: 6.6.1 (8d0f1dd)
C           -3.43703232138099       -0.40925752736381       -0.45176598839907
C           -3.48828355585767       -0.37804403476782        0.99618180162468
H           -3.45794178180087        0.55703122639639       -0.97287447503416
H           -4.07067182476735       -1.15012698040443       -0.95749895975261
H           -3.52123002845769        0.60375391611284        1.47933767866386
H           -4.14008199204026       -1.10373607823343        1.49429580028097
Br          -1.30524118945024       -1.17253294695457        0.45880543521844
Br           0.43886711575331       -1.80264000678548        0.29628507339797
8
 energy: -14.524928065238 gnorm: 0.001608159298 xtb: 6.6.1 (8d0f1dd)
C           -3.43648416178848       -0.40962050808632       -0.45140003213600
C           -3.48827637962687       -0.37823860604805        0.99620495263091
H           -3.45723419554798        0.55663876182734       -0.97230086956921
H           -4.07039378348538       -1.14998735813048       -0.95697888937529
H           -3.52224577847731        0.60390228345279        1.47875354716164
H           -4.14100298653522       -1.10321191230512        1.49385539246369
Br          -1.30487825506367       -1.17235954104065        0.45996985045836
Br           0.43889996252313       -1.80267555166983        0.29466241436598
8
 energy: -14.524933245660 gnorm: 0.004051784133 xtb: 6.6.1 (8d0f1dd)
C           -3.43600556858804       -0.41003473942940       -0.45052540620821
C           -3.48930298686248       -0.37807829763026        0.99639413740723
H           -3.45447143734596        0.55541612032365       -0.97157069907400
H           -4.06841621277844       -1.15027295768990       -0.95625622835686
H           -3.52401172720810        0.60425219911229        1.47799148677842
H           -4.14215945867846       -1.10259492924541        1.49330751775761
Br          -1.30508831024291       -1.17180492413338        0.46317165859142
Br           0.43784012370261       -1.80243490330791        0.29025389910448
8
 energy: -14.524937441055 gnorm: 0.004279297344 xtb: 6.6.1 (8d0f1dd)
C           -3.43562575688158       -0.41031968793234       -0.44968526898716
C           -3.49027300926916       -0.37778134845558        0.99699705342295
H           -3.45149198564954        0.55451452164356       -0.97137733950526
H           -4.06628361611326       -1.15107255290931       -0.95604071846985
H           -3.52586244582992        0.60490948882505        1.47768910067551
H           -4.14337309778713       -1.10224876264947        1.49315248697371
Br          -1.30540245662557       -1.17135817044587        0.46626983950222
Br           0.43669679015439       -1.80219592007635        0.28576121238797
8
 energy: -14.524942124158 gnorm: 0.004437333631 xtb: 6.6.1 (8d0f1dd)
C           -3.43531738751617       -0.41054830084375       -0.44824138191493
C           -3.49232651029180       -0.37691564469705        0.99811733850041
H           -3.44598948555653        0.55303508488149       -0.97175280919678
H           -4.06208181221778       -1.15292322083735       -0.95632839787084
H           -3.52871939724280        0.60610172618075        1.47785297365326
H           -4.14493327193208       -1.10204001126567        1.49346939880693
Br          -1.30644497792757       -1.17062141341023        0.47174133172798
Br           0.43419726468297       -1.80164065200851        0.27790791229407
8
 energy: -14.524943539938 gnorm: 0.001641665911 xtb: 6.6.1 (8d0f1dd)
C           -3.43550584415135       -0.41043057781485       -0.44792532665327
C           -3.49295870486010       -0.37655104440042        0.99848048544050
H           -3.44458436340034        0.55278284488572       -0.97243132361337
H           -4.06087653040839       -1.15363069076828       -0.95698000627490
H           -3.52907797106073        0.60638734619700        1.47845011602017
H           -4.14498624673021       -1.10221898904797        1.49405195283004
Br          -1.30695452251081       -1.17047533739422        0.47287490788151
Br           0.43332860512016       -1.80141598365730        0.27624556036941
8
 energy: -14.524944179858 gnorm: 0.001605675154 xtb: 6.6.1 (8d0f1dd)
C           -3.43570344357877       -0.41019291386024       -0.44775675459765
C           -3.49331074159107       -0.37614705917858        0.99882445230972
H           -3.44387110450204        0.55274173220988       -0.97353434887579
H           -4.05998521888591       -1.15428152768549       -0.95806556306396
H           -3.52925861969193        0.60657808428892        1.47950002553561
H           -4.14486720262376       -1.10241331908552        1.49499604230688
Br          -1.30738768266182       -1.17055153132450        0.47341245053865
Br           0.43276843553352       -1.80128589736479        0.27539006184662
8
 energy: -14.524944294930 gnorm: 0.000218203143 xtb: 6.6.1 (8d0f1dd)
C           -3.43568059282992       -0.41022851995982       -0.44790807160333
C           -3.49307954877013       -0.37631268290421        0.99868191049542
H           -3.44448884953646        0.55282027883754       -0.97345586657325
H           -4.06046499486893       -1.15396946924058       -0.95802395030705
H           -3.52898315327512        0.60638535885450        1.47945380704888
H           -4.14482758211297       -1.10230053567934        1.49496550554799
Br          -1.30721028508071       -1.17059182799632        0.47288906533703
Br           0.43311942847248       -1.80135503391209        0.27616396605440
