 Entering Gaussian System, Link 0=/opt/g16C01/g16
 Input=freqcalc.gjf
 Output=freqcalc.log
 Initial command:
 /opt/g16C01/l1.exe "/scratch/Gau-1200480.inp" -scrdir="/scratch/"
 Entering Link 1 = /opt/g16C01/l1.exe PID=   1200481.
  
 Copyright (c) 1988-2019, Gaussian, Inc.  All Rights Reserved.
  
 This is part of the Gaussian(R) 16 program.  It is based on
 the Gaussian(R) 09 system (copyright 2009, Gaussian, Inc.),
 the Gaussian(R) 03 system (copyright 2003, Gaussian, Inc.),
 the Gaussian(R) 98 system (copyright 1998, Gaussian, Inc.),
 the Gaussian(R) 94 system (copyright 1995, Gaussian, Inc.),
 the Gaussian 92(TM) system (copyright 1992, Gaussian, Inc.),
 the Gaussian 90(TM) system (copyright 1990, Gaussian, Inc.),
 the Gaussian 88(TM) system (copyright 1988, Gaussian, Inc.),
 the Gaussian 86(TM) system (copyright 1986, Carnegie Mellon
 University), and the Gaussian 82(TM) system (copyright 1983,
 Carnegie Mellon University). Gaussian is a federally registered
 trademark of Gaussian, Inc.
  
 This software contains proprietary and confidential information,
 including trade secrets, belonging to Gaussian, Inc.
  
 This software is provided under written license and may be
 used, copied, transmitted, or stored only in accord with that
 written license.
  
 The following legend is applicable only to US Government
 contracts under FAR:
  
                    RESTRICTED RIGHTS LEGEND
  
 Use, reproduction and disclosure by the US Government is
 subject to restrictions as set forth in subparagraphs (a)
 and (c) of the Commercial Computer Software - Restricted
 Rights clause in FAR 52.227-19.
  
 Gaussian, Inc.
 340 Quinnipiac St., Bldg. 40, Wallingford CT 06492
  
  
 ---------------------------------------------------------------
 Warning -- This program may not be used in any manner that
 competes with the business of Gaussian, Inc. or will provide
 assistance to any competitor of Gaussian, Inc.  The licensee
 of this program is prohibited from giving any competitor of
 Gaussian, Inc. access to this program.  By using this program,
 the user acknowledges that Gaussian, Inc. is engaged in the
 business of creating and licensing software in the field of
 computational chemistry and represents and warrants to the
 licensee that it is not a competitor of Gaussian, Inc. and that
 it will not use this program in any manner prohibited above.
 ---------------------------------------------------------------
  

 Cite this work as:
 Gaussian 16, Revision C.01,
 M. J. Frisch, G. W. Trucks, H. B. Schlegel, G. E. Scuseria, 
 M. A. Robb, J. R. Cheeseman, G. Scalmani, V. Barone, 
 G. A. Petersson, H. Nakatsuji, X. Li, M. Caricato, A. V. Marenich, 
 J. Bloino, B. G. Janesko, R. Gomperts, B. Mennucci, H. P. Hratchian, 
 J. V. Ortiz, A. F. Izmaylov, J. L. Sonnenberg, D. Williams-Young, 
 F. Ding, F. Lipparini, F. Egidi, J. Goings, B. Peng, A. Petrone, 
 T. Henderson, D. Ranasinghe, V. G. Zakrzewski, J. Gao, N. Rega, 
 G. Zheng, W. Liang, M. Hada, M. Ehara, K. Toyota, R. Fukuda, 
 J. Hasegawa, M. Ishida, T. Nakajima, Y. Honda, O. Kitao, H. Nakai, 
 T. Vreven, K. Throssell, J. A. Montgomery, Jr., J. E. Peralta, 
 F. Ogliaro, M. J. Bearpark, J. J. Heyd, E. N. Brothers, K. N. Kudin, 
 V. N. Staroverov, T. A. Keith, R. Kobayashi, J. Normand, 
 K. Raghavachari, A. P. Rendell, J. C. Burant, S. S. Iyengar, 
 J. Tomasi, M. Cossi, J. M. Millam, M. Klene, C. Adamo, R. Cammi, 
 J. W. Ochterski, R. L. Martin, K. Morokuma, O. Farkas, 
 J. B. Foresman, and D. J. Fox, Gaussian, Inc., Wallingford CT, 2019.
 
 ******************************************
 Gaussian 16:  ES64L-G16RevC.01  3-Jul-2019
                16-Feb-2024 
 ******************************************
 %nprocs=1
 Will use up to    1 processors via shared memory.
 -------------------------------------------
 # freq=noraman external="xtb-gaussian -P 4"
 -------------------------------------------
 1/10=4,18=10,30=1,38=1/1,3;
 2/12=2,17=6,18=5,40=1/2;
 3/11=9,25=1,30=1,41=9900000,43=2,71=2,140=1/1;
 4/20=17,22=2,24=3,113=1,114=1/2;
 6/7=2,8=2,9=2,10=2/1;
 7/8=1,25=1,44=-1/16;
 1/10=4,18=10,30=1/3;
 99//99;
 -----------
 Simple test
 -----------
 Symbolic Z-matrix:
 Charge =  0 Multiplicity = 1
 O                     0.53909   0.63103   1.85379 
 O                     1.80906   0.01421  -0.15548 
 O                     2.63921   0.88711   3.10136 
 O                     3.90326   0.50999   1.02897 
 H                     1.54897   0.77572   2.54062 
 H                     1.10927   0.31448   0.81186 
 H                     2.89527   0.27756   0.36092 
 H                     3.33698   0.74207   2.09746 
 H                     0.1997    1.51683   1.70293 
 H                     1.75735  -0.94251  -0.23646 
 H                     4.37793  -0.31999   1.13081 
 H                     2.7475    0.09697   3.63839 
 

 GradGradGradGradGradGradGradGradGradGradGradGradGradGradGradGradGradGrad
 Berny optimization.
 Initialization pass.
 Trust Radius=3.00D-01 FncErr=1.00D-07 GrdErr=1.00D-07 EigMax=2.50D+02 EigMin=1.00D-04
 Number of steps in this run=      2 maximum allowed number of steps=      2.
 GradGradGradGradGradGradGradGradGradGradGradGradGradGradGradGradGradGrad

                          Input orientation:                          
 ---------------------------------------------------------------------
 Center     Atomic      Atomic             Coordinates (Angstroms)
 Number     Number       Type             X           Y           Z
 ---------------------------------------------------------------------
      1          8           0        0.539086    0.631027    1.853787
      2          8           0        1.809056    0.014212   -0.155483
      3          8           0        2.639214    0.887109    3.101361
      4          8           0        3.903262    0.509988    1.028975
      5          1           0        1.548967    0.775718    2.540618
      6          1           0        1.109268    0.314476    0.811857
      7          1           0        2.895266    0.277564    0.360921
      8          1           0        3.336982    0.742075    2.097455
      9          1           0        0.199704    1.516833    1.702935
     10          1           0        1.757352   -0.942507   -0.236457
     11          1           0        4.377929   -0.319987    1.130814
     12          1           0        2.747500    0.096968    3.638390
 ---------------------------------------------------------------------
                    Distance matrix (angstroms):
                    1          2          3          4          5
     1  O    0.000000
     2  O    2.455697   0.000000
     3  O    2.456126   3.472484   0.000000
     4  O    3.465927   2.456509   2.456588   0.000000
     5  H    1.229850   2.813627   1.231048   2.810406   0.000000
     6  H    1.229199   1.231101   2.812556   2.809230   1.842470
     7  H    2.811613   1.231211   2.819063   1.231411   2.609934
     8  H    2.810681   2.817814   1.231155   1.231336   1.842423
     9  H    0.960514   2.881250   2.881554   3.896704   1.752562
    10  H    2.886052   0.961530   3.907199   2.883746   3.272287
    11  H    4.020427   2.892293   2.891931   0.961529   3.345316
    12  H    2.889139   3.909092   0.961483   2.883647   1.761331
                    6          7          8          9         10
     6  H    0.000000
     7  H    1.842416   0.000000
     8  H    2.607358   1.851063   0.000000
     9  H    1.751282   3.256200   3.255520   0.000000
    10  H    1.760392   1.772084   3.283320   3.497979   0.000000
    11  H    3.344911   1.774287   1.773680   4.599869   3.020660
    12  H    3.274203   3.285765   1.771478   3.500467   4.132232
                   11         12
    11  H    0.000000
    12  H    3.019948   0.000000
 Stoichiometry    H8O4
 Framework group  C1[X(H8O4)]
 Deg. of freedom    30
 Full point group                 C1      NOp   1
 Largest Abelian subgroup         C1      NOp   1
 Largest concise Abelian subgroup C1      NOp   1
                         Standard orientation:                         
 ---------------------------------------------------------------------
 Center     Atomic      Atomic             Coordinates (Angstroms)
 Number     Number       Type             X           Y           Z
 ---------------------------------------------------------------------
      1          8           0       -1.739470    0.019573    0.006653
      2          8           0       -0.022510   -1.736077    0.020451
      3          8           0        0.017126    1.736180    0.020250
      4          8           0        1.719238   -0.019674   -0.213442
      5          1           0       -0.915119    0.932204    0.015635
      6          1           0       -0.935424   -0.910153    0.013685
      7          1           0        0.900957   -0.936361   -0.132981
      8          1           0        0.921281    0.914590   -0.132176
      9          1           0       -2.120654    0.023924   -0.874975
     10          1           0        0.033625   -2.065489    0.922048
     11          1           0        2.237178   -0.025182    0.596648
     12          1           0        0.083091    2.066447    0.920818
 ---------------------------------------------------------------------
 Rotational constants (GHZ):           4.5128765           4.5015966           2.3264443
 Standard basis: STO-3G (5D, 7F)
 There are    28 symmetry adapted cartesian basis functions of A   symmetry.
 There are    28 symmetry adapted basis functions of A   symmetry.
    28 basis functions,    84 primitive gaussians,    28 cartesian basis functions
    20 alpha electrons       20 beta electrons
       nuclear repulsion energy       154.0252442563 Hartrees.
 NAtoms=   12 NActive=   12 NUniq=   12 SFac= 1.00D+00 NAtFMM=   60 NAOKFM=F Big=F
 Integral buffers will be    131072 words long.
 Raffenetti 1 integral format.
 Two-electron integral symmetry is turned on.
 External calculation of energy, first and second derivatives.
 Running external command "xtb-gaussian -P 4 R"
         input file       "/scratch/Gau-1200481.EIn"
         output file      "/scratch/Gau-1200481.EOu"
         message file     "/scratch/Gau-1200481.EMs"
         fchk file        "/scratch/Gau-1200481.EFC"
         mat. el file     "/scratch/Gau-1200481.EUF"

 ExternalExternalExternalExternalExternalExternalExternalExternalExternalExternal
 Output from external command:
 "xtb-gaussian -P 4 R /scratch/Gau-1200481.EIn /scratch/Gau-1200481.EOu /scratch/Gau-1200481.EMs /scratch/Gau-1200481.EFC /scratch/Gau-1200481.EUF"
 normal termination of xtb
  
 ------- xtb command was ---------
 ?> xtb ./Gau-1200481.EIn -P 4 --hess --alpb water --charge 0 >/dev/null 2>Gau-1200481.EMs
 ---------------------------------
              Control returned to Gaussian.
 ~~~~~~~~~~~~~~~~~~~~~~~~~~~~~~~~~~~~~~~~~~~~~~~~~~~~~~~~~~~~~~~~~~~~~~~~~
 ExternalExternalExternalExternalExternalExternalExternalExternalExternalExternal

 Recovered energy= -20.3094562712     dipole=      0.193939232651      0.000887715266      1.340486493910
 Energy=    -20.3094563     NIter=   0.
 Dipole moment=       0.193939       0.000888       1.340486
 Full mass-weighted force constant matrix:
 Low frequencies ----1680.5057   -0.0257   -0.0210   -0.0168   -0.0101    0.0120
 Low frequencies ---    0.0175   67.6227  173.3013
 ******    1 imaginary frequencies (negative Signs) ****** 
 Diagonal vibrational polarizability:
        0.0000000       0.0000000       0.0000000
 Harmonic frequencies (cm**-1), IR intensities (KM/Mole), Raman scattering
 activities (A**4/AMU), depolarization ratios for plane and unpolarized
 incident light, reduced masses (AMU), force constants (mDyne/A),
 and normal coordinates:
                      1                      2                      3
                      A                      A                      A
 Frequencies --  -1680.5057                67.6227               173.3013
 Red. masses --      1.0360                 4.4481                 8.1134
 Frc consts  --      1.7239                 0.0120                 0.1436
 IR Inten    --      0.0000                 0.0000                 0.0000
  Atom  AN      X      Y      Z        X      Y      Z        X      Y      Z
     1   8     0.00   0.02   0.00    -0.01  -0.00  -0.24    -0.34   0.00   0.03
     2   8    -0.02   0.00   0.00     0.01   0.03   0.24     0.00   0.34  -0.02
     3   8     0.02  -0.00  -0.00     0.01  -0.03   0.24    -0.00  -0.34  -0.02
     4   8    -0.00  -0.02  -0.00    -0.03   0.00  -0.24     0.35  -0.00  -0.00
     5   1    -0.35  -0.35  -0.02    -0.02  -0.01  -0.00    -0.14  -0.14  -0.02
     6   1     0.35  -0.35   0.02    -0.02   0.01  -0.01    -0.14   0.14  -0.02
     7   1     0.36   0.35  -0.05    -0.02  -0.01   0.00     0.15   0.14  -0.02
     8   1    -0.35   0.36   0.05    -0.02   0.01   0.00     0.15  -0.15  -0.02
     9   1     0.00   0.01  -0.00     0.23  -0.00  -0.34    -0.35   0.00   0.04
    10   1    -0.03  -0.00   0.00     0.02   0.30   0.34    -0.01   0.29  -0.03
    11   1    -0.00  -0.03   0.00     0.20  -0.00  -0.39     0.24  -0.00   0.07
    12   1     0.03  -0.00  -0.00     0.02  -0.30   0.34    -0.02  -0.29  -0.03
                      4                      5                      6
                      A                      A                      A
 Frequencies --    478.9155               496.9698               497.8457
 Red. masses --      1.0473                 1.1518                 1.1607
 Frc consts  --      0.1415                 0.1676                 0.1695
 IR Inten    --      0.0000                 0.0000                 0.0000
  Atom  AN      X      Y      Z        X      Y      Z        X      Y      Z
     1   8    -0.04   0.00   0.00     0.02  -0.04   0.01     0.02   0.03   0.01
     2   8    -0.01   0.02   0.00    -0.02   0.01  -0.01    -0.06  -0.02   0.01
     3   8    -0.01  -0.02   0.00    -0.06   0.02   0.01    -0.03  -0.00  -0.01
     4   8     0.00   0.00  -0.01     0.03  -0.05   0.00     0.04   0.04   0.00
     5   1    -0.03  -0.02   0.25     0.19   0.16   0.08     0.09   0.02  -0.12
     6   1    -0.03   0.02   0.26     0.05   0.02  -0.12     0.20  -0.17   0.04
     7   1    -0.02  -0.00   0.04     0.19   0.17  -0.06     0.12   0.01   0.23
     8   1    -0.02  -0.00   0.03     0.08   0.02   0.23     0.20  -0.17  -0.01
     9   1     0.61  -0.01  -0.29     0.05   0.05  -0.00     0.03  -0.04   0.01
    10   1     0.17  -0.40  -0.16    -0.18   0.32   0.11    -0.33  -0.42  -0.12
    11   1     0.03   0.01  -0.03     0.34  -0.34  -0.19     0.44   0.27  -0.25
    12   1     0.18   0.36  -0.15    -0.27   0.51  -0.15    -0.26  -0.23   0.08
                      7                      8                      9
                      A                      A                      A
 Frequencies --    519.3205               544.8116               563.8691
 Red. masses --      1.2061                 5.2634                 2.4348
 Frc consts  --      0.1916                 0.9205                 0.4561
 IR Inten    --      0.0000                 0.0000                 0.0000
  Atom  AN      X      Y      Z        X      Y      Z        X      Y      Z
     1   8     0.00   0.02   0.00     0.01   0.32   0.00     0.21  -0.00   0.03
     2   8     0.01  -0.06  -0.00     0.26  -0.04  -0.00    -0.11   0.11  -0.01
     3   8    -0.01  -0.07   0.00    -0.26  -0.04   0.00    -0.11  -0.11  -0.01
     4   8     0.00   0.07   0.00    -0.00  -0.22   0.00     0.00   0.00  -0.02
     5   1    -0.08  -0.17   0.28    -0.26   0.09  -0.03     0.18   0.06   0.04
     6   1     0.07  -0.17  -0.28     0.27   0.09   0.02     0.17  -0.06   0.04
     7   1    -0.07  -0.14   0.06     0.12  -0.30  -0.03     0.07   0.14  -0.20
     8   1     0.06  -0.14  -0.06    -0.13  -0.30   0.03     0.07  -0.13  -0.20
     9   1     0.01   0.59  -0.00     0.00   0.33   0.00     0.44  -0.01  -0.07
    10   1    -0.26   0.23   0.14     0.30  -0.14  -0.03    -0.09   0.25   0.05
    11   1     0.00   0.28   0.00    -0.00  -0.08   0.00    -0.50   0.01   0.32
    12   1     0.27   0.23  -0.14    -0.31  -0.15   0.04    -0.09  -0.26   0.05
                     10                     11                     12
                      A                      A                      A
 Frequencies --    587.9152               606.8222               642.7559
 Red. masses --      5.2814                 2.7704                 1.4609
 Frc consts  --      1.0756                 0.6011                 0.3556
 IR Inten    --      0.0000                 0.0000                 0.0000
  Atom  AN      X      Y      Z        X      Y      Z        X      Y      Z
     1   8    -0.07   0.00  -0.00     0.00   0.15  -0.00     0.13  -0.00  -0.04
     2   8    -0.13  -0.21   0.03    -0.05  -0.17   0.01    -0.05   0.04   0.02
     3   8    -0.13   0.22   0.03     0.04  -0.17  -0.01    -0.05  -0.04   0.02
     4   8     0.38  -0.01  -0.09     0.00   0.19  -0.00     0.05  -0.00  -0.02
     5   1    -0.11   0.08   0.06     0.12   0.05  -0.20    -0.27  -0.21  -0.00
     6   1    -0.11  -0.07   0.06    -0.11   0.05   0.19    -0.26   0.21  -0.00
     7   1     0.02  -0.09  -0.21    -0.04   0.16  -0.25    -0.29  -0.18   0.16
     8   1     0.02   0.09  -0.21     0.05   0.16   0.25    -0.28   0.19   0.17
     9   1     0.04   0.00  -0.05    -0.01  -0.18   0.00    -0.42  -0.00   0.18
    10   1     0.04  -0.00   0.10     0.45   0.11   0.07     0.07  -0.30  -0.12
    11   1    -0.54   0.01   0.50    -0.01  -0.34   0.00     0.10  -0.00  -0.07
    12   1     0.05  -0.00   0.10    -0.46   0.12  -0.07     0.07   0.31  -0.12
                     13                     14                     15
                      A                      A                      A
 Frequencies --    671.6327               710.5434               775.4359
 Red. masses --      1.1203                 1.1854                 1.0913
 Frc consts  --      0.2977                 0.3526                 0.3866
 IR Inten    --      0.0000                 0.0000                 0.0000
  Atom  AN      X      Y      Z        X      Y      Z        X      Y      Z
     1   8     0.00   0.03  -0.00     0.02  -0.00   0.02    -0.00   0.02   0.00
     2   8     0.02  -0.05  -0.01    -0.04  -0.02  -0.04    -0.02  -0.00  -0.04
     3   8    -0.02  -0.05   0.01    -0.04   0.02  -0.04     0.03  -0.00   0.04
     4   8    -0.00  -0.00   0.00     0.02   0.00   0.06    -0.00  -0.04   0.00
     5   1     0.14   0.37   0.03    -0.16  -0.08   0.05    -0.16  -0.05  -0.08
     6   1    -0.13   0.37  -0.03    -0.15   0.09   0.05     0.16  -0.05   0.08
     7   1     0.29   0.23   0.16    -0.13  -0.09  -0.00    -0.01  -0.20  -0.02
     8   1    -0.29   0.23  -0.16    -0.13   0.10   0.00     0.01  -0.20   0.02
     9   1    -0.01  -0.27   0.00     0.26  -0.01  -0.10    -0.00  -0.49  -0.00
    10   1    -0.35   0.02   0.02     0.29   0.39   0.10     0.13   0.32   0.08
    11   1     0.00   0.20  -0.00     0.49  -0.02  -0.26     0.00   0.60   0.00
    12   1     0.35   0.02  -0.02     0.28  -0.39   0.10    -0.12   0.31  -0.08
                     16                     17                     18
                      A                      A                      A
 Frequencies --    846.4691               855.4115              1116.5747
 Red. masses --      1.1101                 1.0742                 1.0987
 Frc consts  --      0.4686                 0.4631                 0.8071
 IR Inten    --      0.0000                 0.0000                 0.0000
  Atom  AN      X      Y      Z        X      Y      Z        X      Y      Z
     1   8     0.00  -0.00  -0.05    -0.00  -0.03   0.00     0.00   0.04   0.00
     2   8    -0.04   0.00   0.02    -0.02  -0.00   0.00     0.03  -0.00  -0.02
     3   8    -0.04  -0.00   0.02     0.02  -0.01  -0.00    -0.03  -0.00   0.02
     4   8    -0.01  -0.00   0.03    -0.00  -0.05   0.00    -0.00  -0.03   0.00
     5   1     0.19   0.21   0.05     0.26   0.05   0.00     0.23  -0.33  -0.03
     6   1     0.18  -0.21   0.05    -0.26   0.07  -0.00    -0.23  -0.33   0.02
     7   1     0.19   0.21  -0.16     0.12   0.21   0.09    -0.38   0.32   0.24
     8   1     0.19  -0.22  -0.16    -0.12   0.22  -0.09     0.38   0.31  -0.24
     9   1    -0.36   0.01   0.14     0.01   0.45  -0.00    -0.00  -0.22  -0.00
    10   1     0.47  -0.11  -0.06     0.38  -0.01  -0.04    -0.08   0.08   0.03
    11   1     0.11   0.01  -0.04     0.00   0.47   0.00     0.00   0.00  -0.00
    12   1     0.46   0.10  -0.06    -0.38  -0.01   0.04     0.08   0.08  -0.03
                     19                     20                     21
                      A                      A                      A
 Frequencies --   1276.3727              1280.1318              1413.5764
 Red. masses --      1.0287                 1.0302                 1.0393
 Frc consts  --      0.9874                 0.9946                 1.2235
 IR Inten    --      0.0000                 0.0000                 0.0000
  Atom  AN      X      Y      Z        X      Y      Z        X      Y      Z
     1   8     0.01  -0.00   0.01    -0.00  -0.02  -0.00     0.00   0.03  -0.00
     2   8     0.02  -0.00  -0.01    -0.01  -0.02  -0.00    -0.01   0.01   0.02
     3   8     0.02   0.00  -0.01     0.01  -0.02   0.00     0.01   0.01  -0.02
     4   8     0.02  -0.00  -0.01    -0.00  -0.01   0.00     0.00   0.01  -0.00
     5   1    -0.27   0.40  -0.05    -0.42   0.30   0.12     0.08  -0.07   0.61
     6   1    -0.24  -0.37  -0.06     0.45   0.32  -0.12    -0.08  -0.07  -0.60
     7   1    -0.27   0.42   0.21    -0.29   0.20   0.19     0.10  -0.05   0.08
     8   1    -0.26  -0.40   0.19     0.32   0.23  -0.21    -0.10  -0.06  -0.08
     9   1     0.06   0.00  -0.01    -0.00   0.05   0.00    -0.01  -0.33   0.00
    10   1     0.01   0.03   0.01     0.12  -0.01  -0.00     0.18  -0.09  -0.04
    11   1    -0.03   0.00   0.03     0.00  -0.03  -0.00    -0.00  -0.07   0.00
    12   1    -0.00  -0.03   0.01    -0.12  -0.00   0.00    -0.18  -0.09   0.04
                     22                     23                     24
                      A                      A                      A
 Frequencies --   1426.3218              1455.3628              1464.8672
 Red. masses --      1.0541                 1.0430                 1.0604
 Frc consts  --      1.2634                 1.3016                 1.3407
 IR Inten    --      0.0000                 0.0000                 0.0000
  Atom  AN      X      Y      Z        X      Y      Z        X      Y      Z
     1   8     0.02  -0.00  -0.04    -0.00   0.00  -0.00    -0.01  -0.00  -0.03
     2   8     0.02  -0.00  -0.01     0.01  -0.00   0.02    -0.01  -0.02  -0.03
     3   8     0.02   0.00  -0.01    -0.01  -0.00  -0.02    -0.01   0.02  -0.03
     4   8    -0.00  -0.00   0.02    -0.00  -0.03  -0.00     0.00   0.00  -0.03
     5   1    -0.18   0.08   0.53     0.01   0.05   0.14     0.23  -0.26   0.33
     6   1    -0.18  -0.07   0.54    -0.00   0.05  -0.15     0.24   0.26   0.35
     7   1    -0.02   0.05  -0.32    -0.20   0.20  -0.55    -0.01   0.20   0.43
     8   1    -0.01  -0.04  -0.31     0.21   0.19   0.56    -0.02  -0.21   0.42
     9   1    -0.18   0.00   0.06    -0.00  -0.06  -0.00    -0.13   0.01   0.04
    10   1    -0.23   0.04   0.02    -0.12  -0.13  -0.03     0.04   0.13   0.04
    11   1     0.10   0.00  -0.05     0.00   0.32   0.00    -0.12  -0.00   0.07
    12   1    -0.23  -0.03   0.02     0.12  -0.13   0.03     0.04  -0.13   0.03
                     25                     26                     27
                      A                      A                      A
 Frequencies --   1523.3682              1770.7275              3605.8101
 Red. masses --      1.0332                 1.0295                 1.0636
 Frc consts  --      1.4127                 1.9019                 8.1477
 IR Inten    --      0.0000                 0.0000                 0.0000
  Atom  AN      X      Y      Z        X      Y      Z        X      Y      Z
     1   8     0.01  -0.00  -0.01    -0.02   0.00  -0.01    -0.00   0.00  -0.00
     2   8    -0.01   0.01  -0.01     0.00   0.02  -0.01     0.00  -0.01   0.02
     3   8    -0.01  -0.01  -0.01     0.00  -0.02  -0.01     0.00   0.00   0.01
     4   8    -0.02   0.00  -0.02     0.02  -0.00   0.00    -0.03   0.00  -0.05
     5   1    -0.25   0.28   0.11     0.36   0.34   0.11     0.00   0.00   0.00
     6   1    -0.25  -0.27   0.11     0.36  -0.35   0.11     0.01  -0.01   0.00
     7   1     0.39  -0.30   0.30    -0.35  -0.33   0.06    -0.03  -0.02  -0.00
     8   1     0.40   0.29   0.30    -0.34   0.34   0.06    -0.02   0.02  -0.00
     9   1    -0.03  -0.00   0.02    -0.03   0.00   0.04     0.02  -0.00   0.04
    10   1     0.06   0.07   0.01    -0.01   0.02   0.03    -0.02   0.10  -0.27
    11   1    -0.11   0.00   0.05     0.00  -0.00  -0.02     0.51  -0.01   0.77
    12   1     0.06  -0.07   0.01    -0.01  -0.02   0.03    -0.02  -0.08  -0.22
                     28                     29                     30
                      A                      A                      A
 Frequencies --   3608.3963              3609.8334              3626.9362
 Red. masses --      1.0637                 1.0636                 1.0634
 Frc consts  --      8.1599                 8.1662                 8.2420
 IR Inten    --      0.0000                 0.0000                 0.0000
  Atom  AN      X      Y      Z        X      Y      Z        X      Y      Z
     1   8     0.00   0.00   0.00     0.00  -0.00   0.01    -0.02   0.00  -0.06
     2   8     0.00  -0.01   0.04    -0.00   0.01  -0.04     0.00   0.00  -0.00
     3   8    -0.00  -0.02  -0.04    -0.00  -0.01  -0.04     0.00  -0.00  -0.00
     4   8     0.00   0.00   0.00    -0.01   0.00  -0.02    -0.00  -0.00   0.00
     5   1    -0.01  -0.01  -0.01    -0.01  -0.01  -0.01    -0.02  -0.02  -0.01
     6   1     0.01  -0.01   0.01    -0.01   0.01  -0.01    -0.02   0.02  -0.01
     7   1    -0.01  -0.01   0.01     0.00   0.01  -0.01     0.00   0.00  -0.00
     8   1     0.01  -0.02  -0.01     0.00  -0.01  -0.01     0.00  -0.00  -0.00
     9   1    -0.00  -0.00  -0.00    -0.04   0.00  -0.09     0.41  -0.00   0.90
    10   1    -0.04   0.24  -0.63     0.04  -0.24   0.63     0.00  -0.03   0.07
    11   1    -0.02  -0.00  -0.02     0.21  -0.00   0.31     0.00   0.00  -0.00
    12   1     0.05   0.26   0.68     0.04   0.23   0.59     0.00   0.03   0.07

 -------------------
 - Thermochemistry -
 -------------------
 Temperature   298.150 Kelvin.  Pressure   1.00000 Atm.
 Atom     1 has atomic number  8 and mass  15.99491
 Atom     2 has atomic number  8 and mass  15.99491
 Atom     3 has atomic number  8 and mass  15.99491
 Atom     4 has atomic number  8 and mass  15.99491
 Atom     5 has atomic number  1 and mass   1.00783
 Atom     6 has atomic number  1 and mass   1.00783
 Atom     7 has atomic number  1 and mass   1.00783
 Atom     8 has atomic number  1 and mass   1.00783
 Atom     9 has atomic number  1 and mass   1.00783
 Atom    10 has atomic number  1 and mass   1.00783
 Atom    11 has atomic number  1 and mass   1.00783
 Atom    12 has atomic number  1 and mass   1.00783
 Molecular mass:    72.04226 amu.
 Principal axes and moments of inertia in atomic units:
                           1         2         3
     Eigenvalues --   399.90928 400.91136 775.75087
           X            0.99932  -0.02341   0.02859
           Y            0.02343   0.99973  -0.00030
           Z           -0.02857   0.00097   0.99959
 This molecule is an asymmetric top.
 Rotational symmetry number  1.
 Rotational temperatures (Kelvin)      0.21658     0.21604     0.11165
 Rotational constants (GHZ):           4.51288     4.50160     2.32644
    1 imaginary frequencies ignored.
 Zero-point vibrational energy     216631.3 (Joules/Mol)
                                   51.77612 (Kcal/Mol)
 Warning -- explicit consideration of  10 degrees of freedom as
           vibrations may cause significant error
 Vibrational temperatures:     97.29   249.34   689.05   715.03   716.29
          (Kelvin)            747.19   783.86   811.28   845.88   873.08
                              924.78   966.33  1022.31  1115.68  1217.88
                             1230.75  1606.50  1836.42  1841.82  2033.82
                             2052.16  2093.94  2107.62  2191.79  2547.68
                             5187.96  5191.68  5193.75  5218.35
 
 Zero-point correction=                           0.082510 (Hartree/Particle)
 Thermal correction to Energy=                    0.089010
 Thermal correction to Enthalpy=                  0.089955
 Thermal correction to Gibbs Free Energy=         0.052849
 Sum of electronic and zero-point Energies=            -20.226946
 Sum of electronic and thermal Energies=               -20.220446
 Sum of electronic and thermal Enthalpies=             -20.219502
 Sum of electronic and thermal Free Energies=          -20.256607
 
                     E (Thermal)             CV                S
                      KCal/Mol        Cal/Mol-Kelvin    Cal/Mol-Kelvin
 Total                   55.855             24.678             78.096
 Electronic               0.000              0.000              0.000
 Translational            0.889              2.981             38.741
 Rotational               0.889              2.981             26.322
 Vibrational             54.077             18.717             13.033
 Vibration     1          0.598              1.970              4.221
 Vibration     2          0.627              1.875              2.399
 Vibration     3          0.835              1.297              0.713
 Vibration     4          0.852              1.257              0.666
 Vibration     5          0.853              1.255              0.664
 Vibration     6          0.874              1.207              0.612
 Vibration     7          0.900              1.151              0.555
 Vibration     8          0.920              1.109              0.516
 Vibration     9          0.945              1.058              0.471
 Vibration    10          0.966              1.017              0.438
                       Q            Log10(Q)             Ln(Q)
 Total Bot       0.491154D-24        -24.308783        -55.973041
 Total V=0       0.439923D+14         13.643377         31.415036
 Vib (Bot)       0.161872D-36        -36.790829        -84.714015
 Vib (Bot)    1  0.305087D+01          0.484423          1.115426
 Vib (Bot)    2  0.116160D+01          0.065056          0.149798
 Vib (Bot)    3  0.349544D+00         -0.456499         -1.051127
 Vib (Bot)    4  0.331598D+00         -0.479388         -1.103831
 Vib (Bot)    5  0.330759D+00         -0.480489         -1.106366
 Vib (Bot)    6  0.311010D+00         -0.507225         -1.167929
 Vib (Bot)    7  0.289481D+00         -0.538379         -1.239665
 Vib (Bot)    8  0.274596D+00         -0.561306         -1.292456
 Vib (Bot)    9  0.257133D+00         -0.589843         -1.358163
 Vib (Bot)   10  0.244340D+00         -0.612006         -1.409195
 Vib (V=0)       0.144987D+02          1.161330          2.674062
 Vib (V=0)    1  0.359157D+01          0.555284          1.278589
 Vib (V=0)    2  0.176464D+01          0.246656          0.567947
 Vib (V=0)    3  0.111007D+01          0.045349          0.104420
 Vib (V=0)    4  0.109996D+01          0.041379          0.095278
 Vib (V=0)    5  0.109950D+01          0.041196          0.094856
 Vib (V=0)    6  0.108884D+01          0.036962          0.085109
 Vib (V=0)    7  0.107775D+01          0.032520          0.074879
 Vib (V=0)    8  0.107044D+01          0.029563          0.068071
 Vib (V=0)    9  0.106224D+01          0.026224          0.060383
 Vib (V=0)   10  0.105651D+01          0.023873          0.054970
 Electronic      0.100000D+01          0.000000          0.000000
 Translational   0.240345D+08          7.380835         16.995000
 Rotational      0.126244D+06          5.101212         11.745974
 ***** Axes restored to original set *****
 -------------------------------------------------------------------
 Center     Atomic                   Forces (Hartrees/Bohr)
 Number     Number              X              Y              Z
 -------------------------------------------------------------------
      1        8           0.001417833    0.001423723   -0.000691479
      2        8           0.000381451   -0.001199735    0.001581011
      3        8          -0.000367897   -0.001884992   -0.000826737
      4        8          -0.000837434   -0.001648234    0.000684227
      5        1          -0.000325744    0.000270196    0.000389263
      6        1          -0.000592660   -0.000041531   -0.000241798
      7        1           0.000200473    0.000168987   -0.000485791
      8        1           0.000448161    0.000459239    0.000159522
      9        1           0.000227993   -0.001490415    0.000371566
     10        1           0.000014223    0.001461196   -0.000217489
     11        1          -0.000419557    0.001152345   -0.000205875
     12        1          -0.000146841    0.001329220   -0.000516418
 -------------------------------------------------------------------
 Cartesian Forces:  Max     0.001884992 RMS     0.000858574

 GradGradGradGradGradGradGradGradGradGradGradGradGradGradGradGradGradGrad
 Berny optimization.
 Search for a local minimum.
 Step number   1 out of a maximum of    2
 All quantities printed in internal units (Hartrees-Bohrs-Radians)
 Second derivative matrix not updated -- analytic derivatives used.
 ITU=  0
     Eigenvalues ---   -0.13421   0.00076   0.00663   0.01018   0.01069
     Eigenvalues ---    0.01185   0.01414   0.01818   0.01903   0.02976
     Eigenvalues ---    0.03638   0.03835   0.04190   0.04494   0.07106
     Eigenvalues ---    0.07280   0.08102   0.09006   0.10182   0.10217
     Eigenvalues ---    0.11943   0.15670   0.21107   0.21287   0.21719
     Eigenvalues ---    0.25705   0.80149   0.80259   0.82618   0.93419
 Eigenvalue     1 is  -1.34D-01 should be greater than     0.000000 Eigenvector:
                          X7        X5        Z8        Z6        X8
   1                    0.41477  -0.40922   0.40791  -0.38172  -0.25129
                          Z5        X6        Z7        Y6        X3
   1                   -0.25058   0.24788   0.23101  -0.15125   0.12729
 Angle between quadratic step and forces=  83.88 degrees.
 Linear search not attempted -- first point.
 B after Tr=     0.003887    0.001658   -0.000960
         Rot=    1.000000    0.000105    0.000060    0.000338 Ang=   0.04 deg.
 Variable       Old X    -DE/DX   Delta X   Delta X   Delta X     New X
                                 (Linear)    (Quad)   (Total)
    X1        1.01873   0.00142   0.00000   0.01211   0.01634   1.03507
    Y1        1.19247   0.00142   0.00000  -0.05363  -0.05193   1.14054
    Z1        3.50315  -0.00069   0.00000   0.01239   0.01131   3.51446
    X2        3.41862   0.00038   0.00000   0.00451   0.00849   3.42711
    Y2        0.02686  -0.00120   0.00000   0.05518   0.05446   0.08131
    Z2       -0.29382   0.00158   0.00000  -0.01390  -0.01446  -0.30828
    X3        4.98739  -0.00037   0.00000   0.00404   0.00839   4.99578
    Y3        1.67639  -0.00188   0.00000   0.05479   0.05430   1.73070
    Z3        5.86072  -0.00083   0.00000  -0.01733  -0.01806   5.84267
    X4        7.37610  -0.00084   0.00000   0.00577   0.01002   7.38612
    Y4        0.96374  -0.00165   0.00000  -0.06031  -0.06322   0.90052
    Z4        1.94448   0.00068   0.00000   0.01491   0.01465   1.95913
    X5        2.92712  -0.00033   0.00000   0.00685   0.01115   2.93828
    Y5        1.46589   0.00027   0.00000   0.00504   0.00573   1.47162
    Z5        4.80107   0.00039   0.00000   0.00014  -0.00078   4.80029
    X6        2.09621  -0.00059   0.00000   0.00354   0.00765   2.10386
    Y6        0.59427  -0.00004   0.00000  -0.00124  -0.00068   0.59359
    Z6        1.53419  -0.00024   0.00000  -0.00450  -0.00533   1.52886
    X7        5.47126   0.00020   0.00000   0.01003   0.01418   5.48544
    Y7        0.52452   0.00017   0.00000  -0.00302  -0.00492   0.51960
    Z7        0.68204  -0.00049   0.00000  -0.00286  -0.00327   0.67878
    X8        6.30598   0.00045   0.00000   0.01288   0.01724   6.32322
    Y8        1.40232   0.00046   0.00000  -0.00011  -0.00189   1.40043
    Z8        3.96362   0.00016   0.00000  -0.00111  -0.00160   3.96202
    X9        0.37739   0.00023   0.00000  -0.06927  -0.06389   0.31349
    Y9        2.86640  -0.00149   0.00000  -0.08372  -0.08158   2.78482
    Z9        3.21808   0.00037   0.00000   0.04054   0.03903   3.25711
   X10        3.32091   0.00001   0.00000  -0.01797  -0.01517   3.30574
   Y10       -1.78108   0.00146   0.00000   0.06742   0.06673  -1.71435
   Z10       -0.44684  -0.00022   0.00000  -0.10488  -0.10508  -0.55192
   X11        8.27309  -0.00042   0.00000  -0.03882  -0.03566   8.23743
   Y11       -0.60469   0.00115   0.00000  -0.08070  -0.08415  -0.68884
   Z11        2.13693  -0.00021   0.00000   0.03211   0.03229   2.16922
   X12        5.19202  -0.00015   0.00000   0.01801   0.02126   5.21328
   Y12        0.18324   0.00133   0.00000   0.10756   0.10716   0.29040
   Z12        6.87556  -0.00052   0.00000   0.05169   0.05129   6.92685
         Item               Value     Threshold  Converged?
 Maximum Force            0.001885     0.000450     NO 
 RMS     Force            0.000859     0.000300     NO 
 Maximum Displacement     0.107156     0.001800     NO 
 RMS     Displacement     0.043053     0.001200     NO 
 Predicted change in Energy=-7.117620D-05
 GradGradGradGradGradGradGradGradGradGradGradGradGradGradGradGradGradGrad

 Unable to Open any file for archive entry.
 1\1\GINC-BARADVALA\Freq\External='xtb-gaussian -P 4'\ZDO\H8O4\XRAY\16-
 Feb-2024\0\\# freq=noraman external="xtb-gaussian -P 4"\\Simple test\\
 0,1\O,0.5390861214,0.6310271685,1.853786502\O,1.8090558884,0.014211665
 9,-0.1554832548\O,2.6392139402,0.8871089078,3.1013606083\O,3.903262494
 6,0.5099882434,1.028974531\H,1.5489671805,0.7757177197,2.5406177049\H,
 1.1092675972,0.3144762753,0.8118566666\H,2.89526596,0.2775642379,0.360
 9212986\H,3.3369824777,0.7420747368,2.0974552612\H,0.1997042717,1.5168
 328959,1.7029347044\H,1.7573521064,-0.9425065358,-0.2364571346\H,4.377
 929231,-0.319987058,1.1308141594\H,2.7475003359,0.0969675687,3.6383901
 88\\Version=ES64L-G16RevC.01\HF=-20.3094563\RMSD=0.000e+00\RMSF=8.586e
 -04\ZeroPoint=0.0825105\Thermal=0.0890105\ETot=-20.2204458\HTot=-20.21
 95016\GTot=-20.2566074\Dipole=0.1424836,-1.308919,0.3177212\PG=C01 [X(
 H8O4)]\NImag=1\\0.19138849,-0.13755545,0.44647400,0.02170682,-0.049062
 01,0.13989204,-0.01610556,0.01888810,0.05575453,0.13363309,0.01257735,
 0.00079666,-0.02363601,0.02386929,0.50071335,0.03415290,-0.02388097,-0
 .05796788,0.00316736,0.05074051,0.13518946,-0.06574023,-0.00915289,-0.
 05832754,0.01454583,-0.00133445,-0.00591087,0.13741327,-0.00395886,0.0
 0884925,-0.00313310,-0.00094732,-0.00032538,-0.00150050,-0.03843974,0.
 36687599,-0.03635833,-0.00309103,-0.01619871,-0.00589947,-0.00299545,-
 0.00765580,0.02718378,-0.18037094,0.26536504,-0.00838539,0.00220506,0.
 00566380,-0.06540720,-0.01696501,-0.03265644,-0.01630789,0.00563941,0.
 03590649,0.23737610,0.00081992,0.00124312,0.00379844,-0.01736428,0.005
 36817,-0.00767898,0.01362393,0.00742687,-0.01650115,-0.17272318,0.3956
 3651,0.00602845,0.00344305,0.01372405,-0.05498878,-0.01257083,-0.01208
 668,0.05612839,-0.00972027,-0.06333145,0.01962504,-0.02649559,0.134875
 41,-0.01602069,0.00411826,0.02925888,-0.01424856,0.00455714,0.01448782
 ,0.00123834,-0.00540876,-0.00242200,0.00735225,-0.00363091,-0.01884732
 ,0.02750403,-0.00944018,-0.03586009,-0.00777719,-0.00030230,-0.0001970
 5,0.00100675,-0.01167988,-0.03309802,-0.00223467,0.00005923,-0.0006426
 0,-0.00054170,-0.00697121,0.06331422,0.00804784,0.00129158,-0.00852799
 ,-0.00823794,0.00252064,0.00921689,0.02313719,0.00081849,-0.02841802,0
 .00415699,-0.00280126,-0.01182199,-0.02014102,-0.00423342,0.05072124,-
 0.02947245,-0.00594798,-0.01929622,-0.01153849,-0.00521075,-0.00423055
 ,-0.01209195,-0.00041822,-0.00390069,0.00941594,0.00314904,0.00741559,
 0.02551727,-0.00059387,0.00761293,0.04979037,-0.00232568,-0.02426501,0
 .02462492,-0.02055498,-0.02796507,0.01403198,0.00728115,0.00015567,0.0
 0243843,-0.00592172,-0.00208736,-0.00489530,-0.01380892,0.00079624,-0.
 01156482,0.00429192,0.06276009,0.00449584,0.01289476,-0.00697870,-0.02
 389829,0.00547118,-0.02053226,0.01806065,0.00169201,0.00667805,-0.0141
 6114,-0.00399216,-0.01244689,-0.03523924,-0.00461124,-0.03066625,0.020
 62905,-0.00821511,0.02928522,0.00722896,-0.00526133,-0.01854243,0.0005
 8721,0.00644951,-0.00618361,-0.01411299,0.00221853,0.01514252,-0.01453
 956,0.00534313,0.02957643,0.00479057,0.00034356,0.00409196,-0.03247346
 ,0.01341564,0.03511690,0.02697904,0.00243602,-0.00231177,-0.00583050,0
 .01842265,-0.03121155,0.00041902,-0.00213989,0.00003479,0.00195585,-0.
 00234247,-0.03469685,-0.00186132,0.00117034,0.00043621,0.00034869,-0.0
 0657143,0.00672981,0.01159104,-0.01198734,0.06510998,0.00337881,-0.003
 31494,-0.01037731,0.01520560,0.00277231,-0.02947362,-0.00752976,0.0019
 5197,0.00890418,0.00590234,0.00077333,-0.01096841,0.00378719,-0.000404
 29,0.00049047,-0.00560176,0.00796816,0.02140200,-0.02026017,-0.0011826
 9,0.04838525,0.00936556,0.00212525,0.00772750,-0.01213206,-0.00233059,
 -0.00349099,-0.01208735,0.00452742,-0.00595486,-0.02854290,-0.00537133
 ,-0.02097111,-0.03243679,0.00012776,-0.00734636,0.00055422,-0.00149954
 ,-0.00382097,0.02599512,0.00227713,0.00714729,0.05053352,-0.00124118,-
 0.00077089,-0.00147357,0.00505865,0.00062690,0.00229801,0.00460026,-0.
 03373989,-0.00155166,0.00102984,-0.02699078,0.01619271,0.00253745,0.00
 231950,0.00260600,-0.00104277,0.00082000,0.00067577,-0.00994128,-0.000
 12773,-0.00959346,-0.00112098,0.06199674,-0.01534909,-0.00286108,-0.01
 408146,0.01835946,0.00308806,0.00629513,-0.03050388,-0.00074973,-0.014
 32899,0.00299381,0.01316407,-0.00462728,0.03807183,0.00172795,0.025789
 59,-0.00387365,0.00174185,0.00432998,-0.03660716,-0.00756336,-0.029804
 69,0.02294035,-0.00966886,0.02823505,-0.06620037,0.13046534,-0.0252537
 1,0.00040167,-0.00060757,-0.00060370,-0.00079162,-0.00064451,-0.000725
 58,0.00070052,-0.00017968,-0.00026606,-0.00646908,0.01415854,-0.005218
 29,-0.00402837,0.01041561,0.00385977,-0.00089932,0.00034369,0.00019843
 ,-0.00116744,0.00032948,0.00032109,0.07874400,0.14171744,-0.39647592,0
 .06253315,-0.00152893,0.00107584,0.00071534,-0.00342394,0.00050986,-0.
 00173414,-0.00072793,0.00025454,-0.00002032,0.00990816,0.00214813,0.00
 654364,0.00674074,-0.00786192,-0.00661356,0.00071235,-0.00012136,0.000
 30700,0.00025760,-0.00032628,-0.00025629,-0.15355935,0.40098482,-0.028
 26541,0.06542502,-0.03850807,0.00190440,-0.00129244,-0.00407186,-0.002
 23628,-0.00068475,-0.00223297,-0.00012893,-0.00016697,-0.00048097,-0.0
 0094537,0.01013178,0.00128780,0.00171012,-0.01223364,0.00892989,0.0007
 6813,0.00007259,0.00004814,-0.00030041,0.00005818,0.00052048,0.0275044
 4,-0.06144428,0.03493734,-0.00277811,0.00096001,0.00332272,-0.02884079
 ,-0.01958063,0.00115457,-0.00030715,0.00014276,0.00028603,-0.00387200,
 -0.00029043,-0.00211198,0.00032494,-0.00008420,0.00017172,0.00540281,0
 .00825896,-0.00479732,0.00489290,-0.01466438,0.00201712,0.00001615,-0.
 00023136,-0.00067453,-0.00002657,0.00011643,0.00035894,0.02620523,-0.0
 0065835,0.00156048,0.00181910,-0.02199822,-0.44904459,-0.03438049,0.00
 011871,0.00049324,0.00060283,0.00199370,0.00158390,0.00127969,-0.00030
 616,-0.00051180,-0.00029741,0.00565673,-0.00843767,-0.00865583,-0.0094
 7517,-0.00737939,-0.00458394,0.00019566,-0.00063433,-0.00046979,-0.000
 27744,0.00000303,-0.00005643,0.02545286,0.46222661,0.00114740,-0.00027
 605,-0.00170232,0.00119844,-0.02287855,-0.01772646,0.00020766,0.000428
 02,0.00064493,0.00032755,0.00062901,-0.00048403,-0.00012079,-0.0005226
 1,-0.00083651,0.00004426,-0.01425099,0.00064846,-0.00275888,-0.0079982
 4,0.00005520,-0.00035060,-0.00041399,-0.00056090,0.00027625,0.00017493
 ,-0.00046734,0.00088740,0.04526769,0.02084762,0.00097099,-0.00023099,-
 0.00028170,-0.00061403,-0.00140743,-0.00019675,0.00077729,-0.00129155,
 -0.00094133,-0.11528535,0.17596641,-0.02504365,-0.00106335,0.00039896,
 -0.00008708,-0.00112957,0.00055864,0.00045056,-0.00872714,0.01288864,-
 0.00436005,-0.00596100,0.00936189,0.00513714,0.00007091,-0.00000670,-0
 .00000578,-0.00102380,-0.00067763,-0.00073027,0.13225579,-0.00061421,0
 .00040122,-0.00003071,-0.00344435,0.00006425,-0.00151011,-0.00133913,0
 .00097824,0.00053219,0.18681731,-0.34709279,0.03788618,0.00060964,-0.0
 0025151,0.00044513,0.00018211,-0.00045455,-0.00035763,0.00779817,0.003
 82734,0.00526379,0.00548999,-0.00532094,-0.00519710,-0.00008547,-0.000
 08282,0.00007873,-0.00010584,0.00014000,-0.00015304,-0.19557046,0.3475
 4957,-0.00016735,-0.00013169,-0.00025533,-0.00299204,-0.00112175,-0.00
 218897,0.00245409,-0.00039784,-0.00441956,-0.02799928,0.04067757,-0.03
 224657,0.00062656,-0.00005782,-0.00005816,-0.00019931,0.00009327,0.000
 23541,0.00002485,0.00988277,0.00247339,0.00308531,-0.01212864,0.008796
 88,0.00003698,0.00005278,0.00009505,-0.00051161,-0.00029886,-0.0000272
 3,0.02507980,-0.03664781,0.02858618,-0.00425119,-0.00061337,-0.0017326
 5,-0.00028111,-0.00001685,0.00031025,-0.03253555,0.03858084,-0.0223165
 8,-0.00250452,0.00065739,0.00345500,0.00351107,0.01398361,-0.00618795,
 0.00005368,-0.00011107,-0.00069582,0.00027869,0.00016702,0.00011497,0.
 00586296,-0.00934000,-0.00081537,-0.00033434,-0.00020586,-0.00036384,0
 .00000640,-0.00002467,-0.00012843,-0.00027074,0.00026224,0.00056200,0.
 03046466,-0.00175680,0.00035895,-0.00183252,-0.00009832,0.00009848,-0.
 00026055,0.04188586,-0.31816063,0.20294973,0.00093577,-0.00000272,-0.0
 0269630,0.00722499,0.00154675,0.00432274,-0.00023551,-0.00019023,0.000
 12079,0.00038424,-0.00028948,0.00004276,-0.00467838,0.00214770,0.00704
 429,-0.00035863,-0.00010794,0.00011221,0.00002583,0.00000052,-0.000006
 18,0.00001023,0.00024198,0.00007802,-0.04333929,0.31435662,0.00118212,
 -0.00043664,0.00098168,0.00042672,-0.00009768,0.00100206,-0.02266343,0
 .19166665,-0.14500669,0.00036977,-0.00140629,-0.00010517,-0.00851656,0
 .00751647,-0.00717705,-0.00030977,0.00026126,-0.00088491,-0.00036852,0
 .00016615,-0.00113461,0.00133485,0.01299952,-0.01056378,-0.00012964,-0
 .00025824,-0.00005748,-0.00010306,-0.00022657,-0.00039141,0.00097910,-
 0.00030963,-0.00099109,0.02779841,-0.20987499,0.16432846\\-0.00141783,
 -0.00142372,0.00069148,-0.00038145,0.00119973,-0.00158101,0.00036790,0
 .00188499,0.00082674,0.00083743,0.00164823,-0.00068423,0.00032574,-0.0
 0027020,-0.00038926,0.00059266,0.00004153,0.00024180,-0.00020047,-0.00
 016899,0.00048579,-0.00044816,-0.00045924,-0.00015952,-0.00022799,0.00
 149041,-0.00037157,-0.00001422,-0.00146120,0.00021749,0.00041956,-0.00
 115235,0.00020588,0.00014684,-0.00132922,0.00051642\\\@
 The archive entry for this job was punched.


 HE THAT FOLLOWS NATURE IS NEVER LOST.

                             -- BACON
 Job cpu time:       0 days  0 hours  0 minutes  0.6 seconds.
 Elapsed time:       0 days  0 hours  0 minutes  2.0 seconds.
 File lengths (MBytes):  RWF=      6 Int=      0 D2E=      0 Chk=      1 Scr=      1
 Normal termination of Gaussian 16 at Fri Feb 16 02:31:09 2024.
