12
 energy: -20.318065527532 gnorm: 0.000189903819 xtb: 6.6.1 (8d0f1dd)
O            0.57906370683755        0.62565150049646        1.84539563662693
O            1.81974105703284        0.02744253688751       -0.11679792684662
O            2.62962199726403        0.87918316425886        3.06105607686471
O            3.86285776951861        0.50505608457432        1.04071979398709
H            1.56435176347056        0.76984982701974        2.51701797331584
H            1.13418321012858        0.31769436751820        0.82577977447237
H            2.88178016771455        0.27330801363045        0.38758845353017
H            3.31398196026390        0.72837583262480        2.08553023325647
H            0.21443754687843        1.50363368200585        1.70266683004512
H            1.75476801231291       -0.92603925582269       -0.23115102882016
H            4.36795288142343       -0.30922319968353        1.13054489951358
H            2.74084753215477        0.10854327248989        3.62682051905617
12
 energy: -20.318476044599 gnorm: 0.000747663445 xtb: 6.6.1 (8d0f1dd)
O            0.57623739738342        0.62594835353468        1.84604828157894
O            1.81903271474071        0.02666639280049       -0.11949207774866
O            2.63031212054612        0.87983092930691        3.06379363379716
O            3.86559782565936        0.50534932972750        1.03993276549743
H            1.56330185906218        0.77019054036480        2.51870351002189
H            1.13246438416699        0.31726569378599        0.82485284927874
H            2.88270637248934        0.27365246823749        0.38575946039772
H            3.31556908729819        0.72931955801037        2.08634057105707
H            0.21349747559717        1.50451375458474        1.70263284597722
H            1.75500655583160       -0.92705566933498       -0.23170953325490
H            4.36848102057048       -0.31012567737989        1.13059460969390
H            2.74138079165460        0.10792015236176        3.62771431870517
12
 energy: -20.318729825611 gnorm: 0.000558998333 xtb: 6.6.1 (8d0f1dd)
O            0.57440654017844        0.62622675815409        1.84641252451161
O            1.81856973970344        0.02594996383220       -0.12123126692434
O            2.63073571217002        0.88009764294115        3.06564086824944
O            3.86740214727648        0.50572613878883        1.03937245567451
H            1.56260841052860        0.77050578218818        2.51979515191660
H            1.13134493960232        0.31728117124841        0.82411501333738
H            2.88331896578682        0.27383940868594        0.38454538275062
H            3.31659464253115        0.72997199240164        2.08687364020059
H            0.21291532525493        1.50520513857910        1.70263593382176
H            1.75515919812121       -0.92797316689558       -0.23163265783445
H            4.36889579526976       -0.31048212085052        1.13058979894493
H            2.74163618857699        0.10712711692642        3.62805439035303
12
 energy: -20.318957350526 gnorm: 0.000708209018 xtb: 6.6.1 (8d0f1dd)
O            0.57249520322992        0.62670979722144        1.84675268626824
O            1.81808081162477        0.02537774398697       -0.12283273647033
O            2.63106381801068        0.88042990930355        3.06732562645677
O            3.86905404407445        0.50601110230493        1.03886746394186
H            1.56180193076624        0.77005392745065        2.52100639383849
H            1.13015266889073        0.31656734725371        0.82368541943783
H            2.88381211179260        0.27427117121294        0.38341132246767
H            3.31745676098491        0.73076726419807        2.08730920376214
H            0.21283326863296        1.50628966173199        1.70240298776097
H            1.75549615307022       -0.92870945949833       -0.23188508673532
H            4.36917854595416       -0.31093576588314        1.13062691362502
H            2.74216228796852        0.10664312671710        3.62850104064834
12
 energy: -20.319161856535 gnorm: 0.000116266907 xtb: 6.6.1 (8d0f1dd)
O            0.57091819357990        0.62689259279558        1.84712420218783
O            1.81768326683312        0.02467320617970       -0.12438814389860
O            2.63151909802961        0.88057994138904        3.06902787671367
O            3.87068690788637        0.50630524585325        1.03836670449298
H            1.56125670534789        0.77079950560758        2.52189058412299
H            1.12919245432827        0.31675568109000        0.82297702079186
H            2.88435548740015        0.27452570641911        0.38231024471391
H            3.31839632936454        0.73138776116734        2.08777371444568
H            0.21209765942927        1.50672647450338        1.70244397666914
H            1.75564683802252       -0.92960499740586       -0.23168324231440
H            4.36957153897663       -0.31128998108891        1.13060958020535
H            2.74226312580191        0.10572468948966        3.62871871687127
12
 energy: -20.319345435073 gnorm: 0.000300084603 xtb: 6.6.1 (8d0f1dd)
O            0.56925425910398        0.62731340531128        1.84743356765777
O            1.81724638992503        0.02408769695784       -0.12581713089976
O            2.63183925954282        0.88078408922711        3.07058451176081
O            3.87217452039111        0.50662463209060        1.03789809564257
H            1.56057958960854        0.77069975337267        2.52291736491171
H            1.12815215049875        0.31627634365650        0.82254407064373
H            2.88480926670332        0.27483718335143        0.38129517542746
H            3.31918182703010        0.73207822899578        2.08817593394483
H            0.21192222752134        1.50762993912850        1.70225153124871
H            1.75590978703505       -0.93034913006504       -0.23175158675010
H            4.36989187150621       -0.31158983570515        1.13061136951695
H            2.74262645613394        0.10508351967834        3.62902833189700
12
 energy: -20.319510700898 gnorm: 0.000117707126 xtb: 6.6.1 (8d0f1dd)
O            0.56781805878222        0.62745388220143        1.84776436138382
O            1.81689372162230        0.02349443205758       -0.12724206528976
O            2.63224297393395        0.88097586145018        3.07210181687941
O            3.87362678287737        0.50696057875988        1.03742998686601
H            1.56008640176682        0.77140286783419        2.52369257822146
H            1.12729416982396        0.31657419813417        0.82186007593491
H            2.88536531082983        0.27469186052395        0.38033452172936
H            3.32011600959911        0.73226306536652        2.08872110384079
H            0.21117709610606        1.50797410930070        1.70234200548726
H            1.75584354265731       -0.93108468382295       -0.23167734193378
H            4.37052776830011       -0.31166762032975        1.13045100088821
H            2.74259576870114        0.10443727452395        3.62939319099399
12
 energy: -20.319659247129 gnorm: 0.000746670576 xtb: 6.6.1 (8d0f1dd)
O            0.56645791126265        0.62758506008117        1.84806073038884
O            1.81657307038571        0.02291886725822       -0.12860250702753
O            2.63262563823524        0.88115961790258        3.07353218567343
O            3.87500941404212        0.50727281506679        1.03698529261376
H            1.55960712630175        0.77202620158198        2.52442199666741
H            1.12649304059403        0.31692322713372        0.82117362345851
H            2.88590790970081        0.27456342475035        0.37941153440760
H            3.32099857764555        0.73244714702466        2.08923870228742
H            0.21044046982389        1.50829515578266        1.70247094797514
H            1.75577162339682       -0.93179817452694       -0.23156793201855
H            4.37112304067409       -0.31175409753261        1.13030595713917
H            2.74257978293751        0.10383658147726        3.62974070343649
12
 energy: -20.319792997946 gnorm: 0.000236254754 xtb: 6.6.1 (8d0f1dd)
O            0.56510798788419        0.62780711838112        1.84830857435191
O            1.81626565510814        0.02236785167293       -0.12985239619393
O            2.63294087193177        0.88131369859195        3.07485778742359
O            3.87633224580157        0.50736477070768        1.03662509260843
H            1.55908817186003        0.77206602113228        2.52525423715097
H            1.12567432987789        0.31684229514912        0.82065772595511
H            2.88627403904295        0.27516703320473        0.37849549115555
H            3.32160787746369        0.73340174764997        2.08943472871093
H            0.21007311047278        1.50884409571348        1.70247194299447
H            1.75611383636087       -0.93250634084362       -0.23143137760943
H            4.37112785211838       -0.31236622415891        1.13049991764663
H            2.74298162707791        0.10317375879911        3.62984951080745
12
 energy: -20.319913572270 gnorm: 0.000956861238 xtb: 6.6.1 (8d0f1dd)
O            0.56371359684780        0.62820430794853        1.84862081466186
O            1.81581631325077        0.02206821915367       -0.13098809110622
O            2.63317700468573        0.88160305562839        3.07613016744513
O            3.87751019917032        0.50780634889084        1.03619859187512
H            1.55853144245190        0.77210744232990        2.52608500539006
H            1.12477531726346        0.31612393515359        0.82048537728840
H            2.88672966399810        0.27469043415399        0.37774333143423
H            3.32244703440491        0.73320332061705        2.09004350921077
H            0.20995147681624        1.50962034665053        1.70218480066038
H            1.75599685669272       -0.93285994716000       -0.23198378117329
H            4.37191977181559       -0.31209920127791        1.13019274003025
H            2.74301892760263        0.10300756391126        3.63045876928499
12
 energy: -20.320022297622 gnorm: 0.000093077251 xtb: 6.6.1 (8d0f1dd)
O            0.56253161290667        0.62827712353049        1.84885586758563
O            1.81558458587533        0.02160441618763       -0.13219273431738
O            2.63348775656797        0.88182230947675        3.07730380671989
O            3.87871506782751        0.50784099298535        1.03587840712527
H            1.55809717322776        0.77227376077813        2.52677546763404
H            1.12408740032910        0.31634888438562        0.81989224651417
H            2.88712400382078        0.27505040491769        0.37692817147004
H            3.32306776741811        0.73382591972321        2.09030150890868
H            0.20938821950145        1.50989789311545        1.70234704895663
H            1.75614438868779       -0.93344402722364       -0.23194634703571
H            4.37205974962738       -0.31263043722996        1.13030377301259
H            2.74329987921034        0.10260858535314        3.63072401842783
12
 energy: -20.320120317161 gnorm: 0.000991797674 xtb: 6.6.1 (8d0f1dd)
O            0.56133858470057        0.62846623193576        1.84909550586131
O            1.81528791877394        0.02126054279131       -0.13328233015105
O            2.63373842150114        0.88207154939106        3.07842012592902
O            3.87983401334635        0.50797096386399        1.03555759589216
H            1.55764088419425        0.77226352775332        2.52750148428190
H            1.12336419244951        0.31612214610216        0.81952162286797
H            2.88749654230214        0.27518477509443        0.37618366342612
H            3.32369092118363        0.73424893911772        2.09060818727129
H            0.20907305378122        1.51036495323655        1.70232457323621
H            1.75624768877031       -0.93387524360346       -0.23216981759450
H            4.37230927642168       -0.31295210567647        1.13034054633070
H            2.74356610757545        0.10234954599348        3.63107007765053
12
 energy: -20.320120424554 gnorm: 0.000531229558 xtb: 6.6.1 (8d0f1dd)
O            0.56139656333609        0.62848611967036        1.84909440420492
O            1.81525603261634        0.02121275154496       -0.13326113436358
O            2.63373488125529        0.88201511782134        3.07845503980006
O            3.87985961988381        0.50801913725515        1.03553930044319
H            1.55763815141155        0.77238206139691        2.52746335084788
H            1.12335494392844        0.31611874285199        0.81956474692015
H            2.88747480167336        0.27526417683017        0.37616034466137
H            3.32369093287503        0.73430483226325        2.09060783166543
H            0.20909921067482        1.51036994211362        1.70228314188275
H            1.75630081176593       -0.93393989271142       -0.23204263499957
H            4.37226516014867       -0.31294511809579        1.13033887885173
H            2.74351649543087        0.10218795505930        3.63096796508732
12
 energy: -20.320208905807 gnorm: 0.000259156445 xtb: 6.6.1 (8d0f1dd)
O            0.56032434938512        0.62859496104329        1.84933468902174
O            1.81499662137438        0.02084195738964       -0.13431113758304
O            2.63402502127307        0.88221796937663        3.07953612443599
O            3.88093849011422        0.50813198031500        1.03522995315919
H            1.55725133753385        0.77266088883279        2.52807950463616
H            1.12271403736028        0.31614173920634        0.81912327204213
H            2.88785351384747        0.27536608710122        0.37544974273389
H            3.32431391430970        0.73465428355606        2.09092755306107
H            0.20860463990870        1.51065353689876        1.70234119584912
H            1.75634742901609       -0.93439932716837       -0.23214872210127
H            4.37255521310315       -0.31323879508879        1.13034256615802
H            2.74366303777419        0.10185054453725        3.63126649358865
12
 energy: -20.320288570986 gnorm: 0.000985158209 xtb: 6.6.1 (8d0f1dd)
O            0.55927710108887        0.62867193676702        1.84958483906179
O            1.81471264148042        0.02059925517393       -0.13534276558728
O            2.63426966746178        0.88252470705519        3.08056278743857
O            3.88194379978466        0.50844903188980        1.03488431515295
H            1.55689535794033        0.77308770720788        2.52862353368596
H            1.12210594164212        0.31628876786478        0.81869537090454
H            2.88836955809247        0.27455454407005        0.37482131122315
H            3.32514492632291        0.73414469721086        2.09153977532087
H            0.20797949848593        1.51085202456449        1.70244002626175
H            1.75589659106652       -0.93466508477622       -0.23260258038248
H            4.37351546299546       -0.31292013801012        1.13001261146202
H            2.74347705863874        0.10188837698217        3.63195201045978
12
 energy: -20.320360984425 gnorm: 0.000086009255 xtb: 6.6.1 (8d0f1dd)
O            0.55826289586883        0.62893330441550        1.84976301262522
O            1.81447694013538        0.02017017730685       -0.13622719885754
O            2.63449467194813        0.88259695596511        3.08153291020008
O            3.88290591856146        0.50841656295451        1.03464391780362
H            1.55646908006182        0.77283195125314        2.52931361383585
H            1.12145512022783        0.31585463238938        0.81843624321846
H            2.88851451868669        0.27557653654703        0.37413680828749
H            3.32542963704358        0.73533504043480        2.09150757540057
H            0.20798463117181        1.51144016378394        1.70230631814250
H            1.75651141396194       -0.93523082973029       -0.23242915822876
H            4.37304670926183       -0.31371928541027        1.13034788477007
H            2.74403606807093        0.10127061609011        3.63183930780407
12
 energy: -20.320426220704 gnorm: 0.000837665905 xtb: 6.6.1 (8d0f1dd)
O            0.55731844329356        0.62907331769660        1.84994036221101
O            1.81424553228757        0.01982342739233       -0.13711707770353
O            2.63471944752585        0.88274314898296        3.08245101890403
O            3.88383108490542        0.50853181315661        1.03437380137872
H            1.55610805487044        0.77292332050613        2.52987255591723
H            1.12088360867428        0.31583404513396        0.81806983956405
H            2.88881704781102        0.27574863529447        0.37351960290873
H            3.32591926544378        0.73573894004175        2.09174675549114
H            0.20766839332663        1.51178508693087        1.70232951401602
H            1.75662154852893       -0.93566582520530       -0.23243509131061
H            4.37323013728352       -0.31398714645143        1.13038561100354
H            2.74422504104922        0.10092706252085        3.63203434262135
12
 energy: -20.320485197830 gnorm: 0.000668376825 xtb: 6.6.1 (8d0f1dd)
O            0.55643928909213        0.62920260979624        1.85018949299800
O            1.81403089420586        0.01954424803046       -0.13794009956207
O            2.63497718017627        0.88289423101422        3.08334923175327
O            3.88471366050251        0.50854037851098        1.03413817058281
H            1.55582047605960        0.77320634743219        2.53040285273553
H            1.12033355011919        0.31554536277839        0.81784023468636
H            2.88904772300715        0.27613941232420        0.37294202678877
H            3.32638025813299        0.73624007235479        2.09191913962339
H            0.20732581822873        1.51204837545479        1.70226638123954
H            1.75686175469778       -0.93601779853362       -0.23257979814975
H            4.37324488949655       -0.31443701542663        1.13046189711690
H            2.74441211128142        0.10056960226380        3.63218170518894
12
 energy: -20.320485335478 gnorm: 0.000185655758 xtb: 6.6.1 (8d0f1dd)
O            0.55645302071152        0.62919578069454        1.85014464663313
O            1.81398913770821        0.01956206203328       -0.13796557697906
O            2.63490865757628        0.88294483295458        3.08334672608787
O            3.88472466593300        0.50865609713774        1.03410898089690
H            1.55576297445611        0.77308198783113        2.53037547332440
H            1.12032838517314        0.31571029722602        0.81780082237162
H            2.88912380202965        0.27574168004674        0.37293312282914
H            3.32647167529699        0.73590642127604        2.09205392666646
H            0.20734088184656        1.51206472867309        1.70232401113084
H            1.75662221589379       -0.93598271018682       -0.23264606079107
H            4.37354941950349       -0.31415491201989        1.13032940308854
H            2.74431276887143        0.10074956033335        3.63236575974293
12
 energy: -20.320538569801 gnorm: 0.000969323325 xtb: 6.6.1 (8d0f1dd)
O            0.55554858688882        0.62932528216519        1.85033821142207
O            1.81373518893631        0.01940409731453       -0.13879735426351
O            2.63506724162850        0.88322905477042        3.08416641124516
O            3.88553481016946        0.50888389069918        1.03383956678709
H            1.55542106511702        0.77314486178282        2.53088577423435
H            1.11978743709653        0.31559729444638        0.81753680066765
H            2.88951845769977        0.27512943296083        0.37241840251371
H            3.32710902461732        0.73558779340353        2.09252561519996
H            0.20699811397790        1.51236843363297        1.70234003339669
H            1.75629310491317       -0.93614609369670       -0.23316488981161
H            4.37429366796253       -0.31393657212183        1.13010384440389
H            2.74428090599287        0.10088835064246        3.63297881920620
12
 energy: -20.320538789579 gnorm: 0.000621976904 xtb: 6.6.1 (8d0f1dd)
O            0.55565245870059        0.62929052041987        1.85032027331570
O            1.81376794954239        0.01928258804708       -0.13877994470329
O            2.63510898822400        0.88310993776300        3.08419651221258
O            3.88559083241239        0.50873316329997        1.03386944173774
H            1.55545182292992        0.77323681362118        2.53085181459223
H            1.11981688551358        0.31566139456035        0.81751616400917
H            2.88938941882488        0.27589653832484        0.37236236740444
H            3.32694298383627        0.73626906419508        2.09227384088545
H            0.20700529804173        1.51230002922704        1.70234908425624
H            1.75670144790881       -0.93633219385050       -0.23274297375846
H            4.37369593797428       -0.31445258301312        1.13038166012086
H            2.74446358109137        0.10048055340497        3.63257299492898
12
 energy: -20.320587064587 gnorm: 0.000721122739 xtb: 6.6.1 (8d0f1dd)
O            0.55486329141021        0.62937160130136        1.85049144905541
O            1.81357956347997        0.01900261623494       -0.13954659444538
O            2.63533771603784        0.88325401094486        3.08498267666668
O            3.88641346862182        0.50871649341006        1.03366515197019
H            1.55516795853883        0.77335270495994        2.53132934358043
H            1.11934194707006        0.31558065087336        0.81720814114814
H            2.88960620907951        0.27631449718157        0.37182604744610
H            3.32732844819045        0.73679422157278        2.09240725601441
H            0.20667904294451        1.51252127276814        1.70237726692217
H            1.75692264994899       -0.93669072736197       -0.23276428475797
H            4.37364939209496       -0.31492446315801        1.13049965002576
H            2.74469791758306        0.10018294727273        3.63269513137569
12
 energy: -20.320630845867 gnorm: 0.000240051303 xtb: 6.6.1 (8d0f1dd)
O            0.55407551115013        0.62945711438181        1.85066891720340
O            1.81336975758698        0.01881918675170       -0.14030112061428
O            2.63550518869994        0.88347406837630        3.08573583964745
O            3.88715668598168        0.50885926797411        1.03343363638822
H            1.55487638044509        0.77351021482485        2.53176418702366
H            1.11887207348699        0.31556748218903        0.81693201543814
H            2.88995282079536        0.27593657932458        0.37135138398165
H            3.32787691435072        0.73666189509438        2.09277147130652
H            0.20629835680921        1.51272741040597        1.70242863102984
H            1.75670106846541       -0.93688780313601       -0.23312659600618
H            4.37420982970509       -0.31485635355078        1.13035254585489
H            2.74469301752359        0.10020676336382        3.63316032374830
12
 energy: -20.320670434516 gnorm: 0.000503262802 xtb: 6.6.1 (8d0f1dd)
O            0.55334745202285        0.62956940957669        1.85082639995960
O            1.81320132604232        0.01857020713623       -0.14099653138288
O            2.63569029960921        0.88360502069132        3.08645487169548
O            3.88788278982636        0.50883276200321        1.03324911694892
H            1.55460201419630        0.77352590008195        2.53221856759071
H            1.11842749561851        0.31541951604612        0.81668951063934
H            2.89014544046373        0.27627010462235        0.37087795625902
H            3.32820469934444        0.73715971923566        2.09287989972035
H            0.20606111336364        1.51298117674933        1.70243168125690
H            1.75687496276791       -0.93718928319488       -0.23323725396888
H            4.37421305711480       -0.31524934369251        1.13046297505100
H            2.74493695463012        0.09998063674429        3.63331404123203
12
 energy: -20.320706303201 gnorm: 0.000670490797 xtb: 6.6.1 (8d0f1dd)
O            0.55265408188632        0.62960882907780        1.85096966367720
O            1.81304110116439        0.01835695480415       -0.14168113602192
O            2.63586958708018        0.88376874023676        3.08712576306763
O            3.88857427535013        0.50891859691363        1.03304923329835
H            1.55435974385149        0.77363659135482        2.53262350252173
H            1.11802229295643        0.31547680864594        0.81638442816595
H            2.89039284963922        0.27632816528195        0.37041081047084
H            3.32861169539271        0.73739120278942        2.09307511683135
H            0.20575363239195        1.51315362117921        1.70249514370712
H            1.75692773061894       -0.93747406956764       -0.23326844831908
H            4.37432523912276       -0.31547573595581        1.13050930701667
H            2.74505537554569        0.09978612123952        3.63347785058576
12
 energy: -20.320706400602 gnorm: 0.000523526949 xtb: 6.6.1 (8d0f1dd)
O            0.55268014369165        0.62962446940532        1.85097772660440
O            1.81299276214769        0.01839672826464       -0.14167506418902
O            2.63583877370788        0.88379506018107        3.08713981180948
O            3.88858984946049        0.50899455547172        1.03302474654372
H            1.55433077278247        0.77365728556103        2.53260004355883
H            1.11799845432780        0.31539784179686        0.81645741251390
H            2.89042093778749        0.27612779120712        0.37040151759692
H            3.32867576118851        0.73721524108809        2.09316770044420
H            0.20579474497545        1.51317103486566        1.70245481884213
H            1.75682994027077       -0.93742139072182       -0.23336296166097
H            4.37445976554077       -0.31533064680422        1.13043462587406
H            2.74497569911924        0.09984785568428        3.63355085706395
12
 energy: -20.320738931903 gnorm: 0.000157341235 xtb: 6.6.1 (8d0f1dd)
O            0.55200787078413        0.62972627377754        1.85111721319585
O            1.81282803451803        0.01819789939632       -0.14230834636852
O            2.63599363900610        0.88393986365049        3.08778634181304
O            3.88924374420250        0.50904992681660        1.03284275770048
H            1.55407796987027        0.77367780903716        2.53300849616197
H            1.11758681682409        0.31527051975627        0.81624558857499
H            2.89063150838402        0.27623976981297        0.36997293615441
H            3.32903499801588        0.73748301176674        2.09333408838295
H            0.20557919226902        1.51341368726598        1.70245371595471
H            1.75690003679020       -0.93766685666755       -0.23349829731703
H            4.37457417035828       -0.31555340777438        1.13046905430096
H            2.74512962397770        0.09969732916159        3.63374768644780
12
 energy: -20.320768415612 gnorm: 0.000145502303 xtb: 6.6.1 (8d0f1dd)
O            0.55141011905056        0.62976677573405        1.85125205789556
O            1.81270087544333        0.01795334341218       -0.14292039870896
O            2.63617816817300        0.88403327059587        3.08841632732835
O            3.88988339989159        0.50903810681843        1.03268110973351
H            1.55388049167778        0.77391025806765        2.53334384378460
H            1.11723970530659        0.31537162007430        0.81595372795162
H            2.89083210585208        0.27639814605604        0.36956300447993
H            3.32937441272453        0.73776720768611        2.09347997630842
H            0.20519795750888        1.51350619727548        1.70253590498247
H            1.75694386243910       -0.93795108162309       -0.23354394850891
H            4.37472112506488       -0.31580525350984        1.13049318637768
H            2.74522538186789        0.09948723541255        3.63391644337734
12
 energy: -20.320795146614 gnorm: 0.000359339669 xtb: 6.6.1 (8d0f1dd)
O            0.55077912913568        0.62987493825966        1.85138476247477
O            1.81253328488597        0.01780467172045       -0.14349361731238
O            2.63630536043288        0.88419161153136        3.08899758994194
O            3.89046634292690        0.50909997750721        1.03251474722963
H            1.55363407960743        0.77388407492223        2.53372375547196
H            1.11685104268112        0.31519214126905        0.81579349294333
H            2.89103932307199        0.27637660546478        0.36918543090973
H            3.32972430819207        0.73789885956698        2.09367619219856
H            0.20502671900024        1.51375505741625        1.70251464308019
H            1.75694015361891       -0.93812538998443       -0.23378673577908
H            4.37494036921363       -0.31592434098631        1.13047344187136
H            2.74534749223338        0.09944761931249        3.63418753197160
12
 energy: -20.320819361433 gnorm: 0.000909802411 xtb: 6.6.1 (8d0f1dd)
O            0.55025741936191        0.62986703160167        1.85151711571714
O            1.81243655204840        0.01759305391184       -0.14405525748267
O            2.63649652357600        0.88428293240510        3.08956229996132
O            3.89106003019412        0.50911785342335        1.03235570183352
H            1.55346625130615        0.77415643385627        2.53401419140874
H            1.11654816680118        0.31531451194208        0.81550863670768
H            2.89121496565836        0.27662718052043        0.36879096836510
H            3.33002424488531        0.73824921080533        2.09378525554761