12
 energy: -20.321062515389 gnorm: 0.000604667779 xtb: 6.6.1 (8d0f1dd)
O            0.53908612138769        0.63102716852369        1.85378650204319
O            1.80905588836990        0.01421166588773       -0.15548325484118
O            2.63921394021906        0.88710890776968        3.10136060826213
O            3.90326249464857        0.50998824340655        1.02897453101286
H            1.54896718046852        0.77571771968632        2.54061770490478
H            1.10926759723247        0.31447627529926        0.81185666658456
H            2.89526596002780        0.27756423785152        0.36092129860499
H            3.33698247769744        0.74207473684595        2.09745526116945
H            0.19970427167403        1.51683289587327        1.70293470442358
H            1.75735210636591       -0.94250653581631       -0.23645713455025
H            4.37792923096659       -0.31998705802297        1.13081415943320
H            2.74750033593907        0.09696756869516        3.63839018795302
