12
 energy: -20.321062437452 gnorm: 0.002456978733 xtb: 6.6.1 (8d0f1dd)
O            0.53910994848766        0.63103176010973        1.85379955268717
O            1.80906130342899        0.01420769141635       -0.15549112076489
O            2.63918949366507        0.88710821669099        3.10136216027791
O            3.90327691527240        0.50998749217375        1.02896228274108
H            1.54895833723892        0.77571638733052        2.54060680036446
H            1.10925879902601        0.31448409213831        0.81187755667779
H            2.89524939140726        0.27756251480963        0.36090433291911
H            3.33697998979236        0.74207585511202        2.09746379099719
H            0.19971138630883        1.51683357281385        1.70293951020622
H            1.75736477915647       -0.94251059637383       -0.23645751154976
H            4.37793259783754       -0.31998850508270        1.13081421772941
H            2.74749466337554        0.09696734486123        3.63838966271465
12
 energy: -20.321059403469 gnorm: 0.015002406930 xtb: 6.6.1 (8d0f1dd)
O            0.53903613084448        0.63103971620154        1.85381515958265
O            1.80896764772050        0.01421410535910       -0.15545856262743
O            2.63918637212296        0.88710802810895        3.10136092616737
O            3.90320995942372        0.50998297576301        1.02895792772640
H            1.54901386693148        0.77572167400085        2.54064854377744
H            1.10932936701046        0.31444561697746        0.81175331925750
H            2.89536518148122        0.27758606306202        0.36098012485116
H            3.33699535130060        0.74206866973409        2.09742982270025
H            0.19970283814083        1.51683392876381        1.70293504573615
H            1.75734970625024       -0.94250706564441       -0.23645668407991
H            4.37792796966755       -0.31998557243401        1.13081489183567
H            2.74750321410300        0.09696768610742        3.63839072007309
12
 energy: -20.321062515302 gnorm: 0.000605132317 xtb: 6.6.1 (8d0f1dd)
O            0.53908612138769        0.63102716852369        1.85378650204319
O            1.80905588836990        0.01421166588773       -0.15548325484118
O            2.63921394021906        0.88710890776968        3.10136060826213
O            3.90326249464857        0.50998824340655        1.02897453101286
H            1.54896718046852        0.77571771968632        2.54061770490478
H            1.10926759723247        0.31447627529926        0.81185666658456
H            2.89526596002780        0.27756423785152        0.36092129860499
H            3.33698247769744        0.74207473684595        2.09745526116945
H            0.19970427167403        1.51683289587327        1.70293470442358
H            1.75735210636591       -0.94250653581631       -0.23645713455025
H            4.37792923096659       -0.31998705802297        1.13081415943320
H            2.74750033593907        0.09696756869516        3.63839018795302
