12
 energy: -12.412722986510 gnorm: 0.000067710036 xtb: 6.7.1 (edcfbbe)
N            0.30397673478166        0.83817592432421        0.70813064017050
B            0.96407118974822        0.93864925273684       -0.58498821252181
N           -0.63697207766518       -1.62720151562250        0.17071574153870
B           -0.78998053582543       -0.27990548415723       -0.29628043483244
H            0.18032876593117       -2.16873184937109       -0.04726483211173
H            1.90769005723585        0.26867270109522       -0.76385129368274
H            0.78450598769499        1.91060162025170       -1.21270100064828
H           -0.23259253511881        1.60918582420126        1.07083498136728
H            0.70751824988810        0.28646407385650        1.44868501767478
H           -1.07160157926643       -1.93689822214569        1.02226638378384
H           -1.83785931177085        0.23377164021343       -0.14123946021868
H           -0.27908494563338       -0.07278396538270       -1.37430753051969
