16
 energy: -17.815647478379 gnorm: 0.000941495476 xtb: 6.5.1 (b24c23e)
C           -6.86025441351969        0.09356232437583        0.44351851550303
C           -5.62021748631397        0.13503724478299        1.04872970137135
C           -8.03219317621736       -0.01183916171187        1.15692564638606
C           -5.44997287048577       -2.09575395104977        1.56023141644985
C           -6.62125629620810       -2.21203541885754        2.28159251748867
C           -7.85961398938894       -2.26436548550993        1.68383407533383
H           -6.89783537690829       -0.07153679090271       -0.62636060429130
H           -6.57753682428722       -2.04755773806333        3.35128733061624
H           -4.72447048004124        0.21643392576634        0.45752358443781
H           -5.53844204136876        0.43854907781968        2.07862014691446
H           -5.42841436121921       -2.39262103265883        0.52536962440168
H           -4.49877224764425       -2.05707222084094        2.06252743205101
H           -8.05766693489879        0.27532815205394        2.19431110419683
H           -8.98180291665766       -0.05574475642570        0.65220601822761
H           -7.94602860324150       -2.55853674422573        0.65176031248984
H           -8.75442772360058       -2.34156264655463        2.27687792942149
16
 energy: -17.815713546118 gnorm: 0.000986132510 xtb: 6.5.1 (b24c23e)
C           -6.86059395109115        0.09280749549797        0.44353808111520
C           -5.62026799011339        0.13502548043529        1.04724033508326
C           -8.03190527852208       -0.01308362838082        1.15884939763209
C           -5.44967901045789       -2.09632634249119        1.56182820071139
C           -6.62162483378281       -2.21199513455625        2.28140638204708
C           -7.85965676994721       -2.26334655085562        1.68185845604515
H           -6.89991903208167       -0.07121601153982       -0.62639078612036
H           -6.57965313206351       -2.04718301427544        3.35112059033586
H           -4.72512682832660        0.21595981661793        0.45499139724374
H           -5.53719023891436        0.43903941074606        2.07687149675430
H           -5.42645650943149       -2.39304197339337        0.52698305393697
H           -4.49919679737926       -2.05617101598598        2.06537474359606
H           -8.05568620704667        0.27472459500097        2.19606194946631
H           -8.98215704144192       -0.05540976626045        0.65521855972411
H           -7.94487008697055       -2.55812353757593        0.64983831818828
H           -8.75492203443078       -2.34137504498556        2.27416457523905
16
 energy: -17.815707138803 gnorm: 0.000212111836 xtb: 6.5.1 (b24c23e)
C           -6.86060113605302        0.09292014211778        0.44354482688274
C           -5.62033455371692        0.13585182154365        1.04675929075515
C           -8.03182839612358       -0.01383500692911        1.15932188887828
C           -5.44960687626934       -2.09701628059835        1.56227838233320
C           -6.62162266928682       -2.21191615648577        2.28139997586322
C           -7.85972761058862       -2.26253988367055        1.68137860578643
H           -6.90015594726990       -0.07133004094176       -0.62634616885857
H           -6.57987859508312       -2.04726976679889        3.35114812860883
H           -4.72526377314767        0.21642362226508        0.45437391200834
H           -5.53698557833170        0.43908907595233        2.07659123938137
H           -5.42625415832790       -2.39311098536138        0.52726971171244
H           -4.49922145275043       -2.05675170894481        2.06597925632891
H           -8.05550373781446        0.27469385594536        2.19634952489462
H           -8.98217859865764       -0.05603230754647        0.65583180947651
H           -7.94466030255824       -2.55803637915419        0.64953222706384
H           -8.75508235602196       -2.34085522339512        2.27354213988317
16
 energy: -17.815702856715 gnorm: 0.000094856144 xtb: 6.5.1 (b24c23e)
C           -6.86055284665556        0.09298532536678        0.44354108052353
C           -5.62041626471306        0.13650090731617        1.04642143075667
C           -8.03178903445774       -0.01444249612415        1.15965714928166
C           -5.44956820554119       -2.09762022413711        1.56260812982113
C           -6.62157014947698       -2.21187362045286        2.28139052744988
C           -7.85980514028383       -2.26190276621443        1.68103891213269
H           -6.90033090962930       -0.07137358048967       -0.62632533800144
H           -6.58005078760412       -2.04728026689650        3.35115496423551
H           -4.72536130055433        0.21678944070045        0.45398376475894
H           -5.53685586208170        0.43912866108724        2.07640610073594
H           -5.42611080979351       -2.39317002865519        0.52745758238210
H           -4.49923009931379       -2.05717530136988        2.06637007594361
H           -8.05536518451750        0.27463445104932        2.19654449561605
H           -8.98218539584835       -0.05648441674068        0.65623150168122
H           -7.94452951274205       -2.55798029719812        0.64933252607806
H           -8.75518423878828       -2.34045100924358        2.27314184760292
16
 energy: -17.815699982008 gnorm: 0.000080029609 xtb: 6.5.1 (b24c23e)
C           -6.86049964956423        0.09302415296129        0.44353576476203
C           -5.62048449644252        0.13701054089995        1.04617207063135
C           -8.03176309013757       -0.01493664503448        1.15990390949242
C           -5.44954212513276       -2.09811450135824        1.56285544023598
C           -6.62151379259900       -2.21185395419565        2.28138496180319
C           -7.85986942490440       -2.26139334327792        1.68078988994528
H           -6.90045483185238       -0.07139355142626       -0.62631489723162
H           -6.58017371466526       -2.04728325882320        3.35115963018004
H           -4.72542778137313        0.21710657981643        0.45371715894121
H           -5.53677590525213        0.43914996458300        2.07628063589992
H           -5.42601828815781       -2.39320190474738        0.52758239438231
H           -4.49922628745816       -2.05752018547676        2.06663924409387
H           -8.05527354544111        0.27459342091891        2.19667390489913
H           -8.98218233318385       -0.05684829624194        0.65650465323036
H           -7.94444823379173       -2.55794497817762        0.64920031469483
H           -8.75525224204526       -2.34010926242234        2.27286967503817
16
 energy: -17.815698015050 gnorm: 0.000065452637 xtb: 6.5.1 (b24c23e)
C           -6.86044921614790        0.09304961277357        0.44352984482701
C           -5.62054023285364        0.13742070956656        1.04598441976504
C           -8.03174460123623       -0.01534000380677        1.16008709746466
C           -5.44952330254936       -2.09851833746077        1.56304292100319
C           -6.62146085618922       -2.21184634954383        2.28138242510674
C           -7.85992233897660       -2.26098147811062        1.68060584938211
H           -6.90053662969977       -0.07140357936002       -0.62631022938480
H           -6.58025486320501       -2.04728668710052        3.35116369528984
H           -4.72547369305705        0.21737937337486        0.45353055709578
H           -5.53672952070946        0.43915935731504        2.07619659065239
H           -5.42596246083493       -2.39321560735197        0.52766540788608
H           -4.49921649158879       -2.05780838172514        2.06682811482162
H           -8.05521732214128        0.27456536334160        2.19675891068315
H           -8.98217389746615       -0.05714922310737        0.65669368781247
H           -7.94440114039758       -2.55791954835009        0.64911358798124
H           -8.75529917494832       -2.33982044245676        2.27268187061194
16
 energy: -17.815696651581 gnorm: 0.000054392125 xtb: 6.5.1 (b24c23e)
C           -6.86040854060529        0.09316635375007        0.44347119552975
C           -5.62059747056389        0.13774252459375        1.04577791190991
C           -8.03173048502374       -0.01567729331953        1.16018782979155
C           -5.44951516385103       -2.09883538285543        1.56324989385274
C           -6.62140053604811       -2.21192982389537        2.28143222371716
C           -7.85996298940214       -2.26063430413959        1.68050353555508
H           -6.90062051540983       -0.07136038586860       -0.62635001358648
H           -6.58032701532502       -2.04734260546388        3.35121145189969
H           -4.72550915627457        0.21760266082525        0.45334387596257
H           -5.53668316403876        0.43903256689058        2.07611211544503
H           -5.42592320388818       -2.39309447441184        0.52774952353101
H           -4.49920263146150       -2.05804617184035        2.06701704947842
H           -8.05516156482018        0.27445046897555        2.19680464540952
H           -8.98216774262558       -0.05739143314920        0.65680686998540
H           -7.94436268206889       -2.55780873692062        0.64906678734664
H           -8.75533288059457       -2.33958918517303        2.27256985517048
16
 energy: -17.816503185912 gnorm: 0.000381801326 xtb: 6.5.1 (b24c23e)
C           -6.86031606402304        0.09194207855100        0.44384989310430
C           -5.62035172842896        0.13285537299405        1.04680504277357
C           -8.03123379807376       -0.02055190675298        1.16120976758047
C           -5.45000518767236       -2.09396305040102        1.56223426397388
C           -6.62150459827172       -2.21070313892376        2.28105354298655
C           -7.86020388105874       -2.25574147291423        1.67946898089413
H           -6.90052320069834       -0.07277734047316       -0.62591172216864
H           -6.58045676200237       -2.04592846278348        3.35077473495113
H           -4.72548240245638        0.21451871287190        0.45408075264086
H           -5.53639478998769        0.43586951801296        2.07668961017368
H           -5.42610437745959       -2.38992537778385        0.52716728887836
H           -4.49964702058097       -2.05499122452386        2.06630041371554
H           -8.05495257755654        0.27121442591252        2.19741881760365
H           -8.98172453750239       -0.06050635713441        0.65753668845392
H           -7.94463531561298       -2.55457786017796        0.64845610682552
H           -8.75536950061543       -2.33644913847598        2.27182056861156
16
 energy: -17.817309758261 gnorm: 0.000407749556 xtb: 6.5.1 (b24c23e)
C           -6.86018408260876        0.09021745828090        0.44438617631300
C           -5.62008949593410        0.12798913756253        1.04792747115955
C           -8.03074699577707       -0.02540236969802        1.16232586167933
C           -5.45048559153107       -2.08911088351471        1.56112227538275
C           -6.62164956921123       -2.20897900361394        2.28051780635652
C           -7.86046010066398       -2.25087569438252        1.67834175499954
H           -6.90042292747837       -0.07410692818473       -0.62541987136588
H           -6.58057745458306       -2.04460013994026        3.35028382020513
H           -4.72548176744797        0.21177605327422        0.45495606480367
H           -5.53621582978142        0.43326263312516        2.07721065898724
H           -5.42631605256151       -2.38732081868209        0.52664789097454
H           -4.50008620506412       -2.05227753769381        2.06544621877608
H           -8.05472003978852        0.26856096178192        2.19796365667367
H           -8.98128735862939       -0.06326286959661        0.65841376992220
H           -7.94480250648664       -2.55192025937317        0.64790819456013
H           -8.75537976445406       -2.33366496134715        2.27092300157101
16
 energy: -17.818115936800 gnorm: 0.000413079167 xtb: 6.5.1 (b24c23e)
C           -6.86005018889128        0.08846536683147        0.44492644161939
C           -5.61982767919443        0.12312630904263        1.04906540603297
C           -8.03025846177695       -0.03024901746409        1.16345734014524
C           -5.45096748903900       -2.08426242555684        1.55999490779259
C           -6.62179659384577       -2.20722772986335        2.27997815719680
C           -7.86071554783910       -2.24601377938130        1.67719906856687
H           -6.90031719053797       -0.07549478936225       -0.62492235348722
H           -6.58070087395347       -2.04321340108861        3.34978713547306
H           -4.72545916660794        0.20905982901781        0.45588812670725
H           -5.53607608021663        0.43071728127033        2.07773956321733
H           -5.42655923112620       -2.38478226959362        0.52612396853446
H           -4.50050570905662       -2.04958729908623        2.06453324296762
H           -8.05445590833121        0.26597364412351        2.19851371982292
H           -8.98087139712065       -0.06599523574067        0.65935268896088
H           -7.94493043356073       -2.54932405989405        0.64735159540430
H           -8.75541379090332       -2.33090764525703        2.26996574204403
16
 energy: -17.818921474032 gnorm: 0.000404535793 xtb: 6.5.1 (b24c23e)
C           -6.85991819460104        0.08673354303792        0.44545740222496
C           -5.61957063728057        0.11826382818730        1.05020680926714
C           -8.02976483890364       -0.03509420700329        1.16459203262459
C           -5.45145439618176       -2.07941497345428        1.55886454753270
C           -6.62194197440194       -2.20549677805917        2.27944783482924
C           -7.86096608573935       -2.24115269536064        1.67605269496749
H           -6.90021128662198       -0.07688708907670       -0.62443039506712
H           -6.58082417619296       -2.04182223009065        3.34929600742144
H           -4.72543323993339        0.20636033352320        0.45684308242440
H           -5.53596027671139        0.42820851008353        2.07826133904534
H           -5.42682062693792       -2.38228302578096        0.52560918953908
H           -4.50092194598228       -2.04691332393838        2.06359704709395
H           -8.05417301754519        0.26342720391264        2.19905497416031
H           -8.98045942587959       -0.06871065007085        0.66031630158757
H           -7.94503369601916       -2.54676587952451        0.64680171089229
H           -8.75545192306910       -2.32816778838744        2.26898417245512
16
 energy: -17.818920708145 gnorm: 0.000024566087 xtb: 6.5.1 (b24c23e)
C           -6.85982682009551        0.08605656065692        0.44562559822203
C           -5.61959790587726        0.11859708560390        1.05023550871958
C           -8.02975160119076       -0.03535849800856        1.16486505026361
C           -5.45144075568633       -2.07974912273619        1.55883650213021
C           -6.62195578986260       -2.20481472569598        2.27927590929855
C           -7.86101341676736       -2.24089063254845        1.67578131459166
H           -6.90021962684412       -0.07712720790810       -0.62434871374911
H           -6.58087139488169       -2.04158574257335        3.34921699213239
H           -4.72539409798234        0.20692600682854        0.45707758243524
H           -5.53621611458582        0.42882852808315        2.07823842463725
H           -5.42699038373488       -2.38293087012371        0.52565255283807
H           -4.50083222309593       -2.04747057284127        2.06335636012215
H           -8.05396330956525        0.26405164962873        2.19910126309852
H           -8.98053348012376       -0.06853855898552        0.66079949615716
H           -7.94475004079300       -2.54735807035856        0.64673171689750
H           -8.75554878091467       -2.32835105102383        2.26850919320368
16
 energy: -17.819725045074 gnorm: 0.000358086905 xtb: 6.5.1 (b24c23e)
C           -6.85973876550810        0.08494479790067        0.44596619812714
C           -5.61937155211194        0.11370604641859        1.05125249081615
C           -8.02923995446565       -0.04023358014448        1.16587578831427
C           -5.45194978534562       -2.07487656376853        1.55783310183249
C           -6.62204581894272       -2.20370309208097        2.27893540361165
C           -7.86123821652821       -2.23599679718130        1.67475679445099
H           -6.90012639382803       -0.07843528135901       -0.62394586264537
H           -6.58098775575951       -2.04027918151895        3.34881525181149
H           -4.72537658239136        0.20390772164806        0.45784117209236
H           -5.53597708761311        0.42577351050596        2.07877033443924
H           -5.42720210198342       -2.37987406721479        0.52511933083997
H           -4.50127990311895       -2.04448041039292        2.06261343932035
H           -8.05373739544457        0.26099135760761        2.19964739978625
H           -8.98008340817588       -0.07160167163043        0.66155146296745
H           -7.94497674598364       -2.54429782990691        0.64618561808391
H           -8.75557427480056       -2.32526018088487        2.26773682715016
16
 energy: -17.820528540919 gnorm: 0.000371870641 xtb: 6.5.1 (b24c23e)
C           -6.85961274860928        0.08333756115215        0.44647050857207
C           -5.61911922924088        0.10883980096987        1.05237724439497
C           -8.02874612734898       -0.04508404508619        1.16698683688075
C           -5.45244025406863       -2.07002588748922        1.55671979038602
C           -6.62217837143736       -2.20209628268650        2.27843140703175
C           -7.86148698176317       -2.23113031089869        1.67363397117358
H           -6.90002752410710       -0.07968642827681       -0.62347882991668
H           -6.58109728628099       -2.03902873175733        3.34834873100993
H           -4.72538878180773        0.20121245208404        0.45873721661948
H           -5.53582483284064        0.42327858203219        2.07925025121660
H           -5.42742174001339       -2.37738354400272        0.52464265164964
H           -4.50172759498914       -2.04181520685906        2.06173949172870
H           -8.05350568589986        0.25846140553837        2.20014017614339
H           -8.97963657482916       -0.07430205825834        0.66243346832901
H           -7.94512374677943       -2.54176233983466        0.64568877170291
H           -8.75556826198551       -2.32253018862937        2.26683306407639
16
 energy: -17.821330743755 gnorm: 0.000373672253 xtb: 6.5.1 (b24c23e)
C           -6.85948528327105        0.08169842519086        0.44698336190386
C           -5.61886363836599        0.10397775757578        1.05351838672621
C           -8.02825310213982       -0.04993037917331        1.16811577655566
C           -5.45292851644455       -2.06517905531134        1.55558982739298
C           -6.62231445383523       -2.20045771014451        2.27791896723994
C           -7.86173770946786       -2.22626813621011        1.67249338992466
H           -6.89992398966204       -0.08099299441362       -0.62300253711908
H           -6.58121029612758       -2.03772278522443        3.34787289346115
H           -4.72538156183500        0.19854569667231        0.45968203557191
H           -5.53570078073336        0.42084332619235        2.07973795123294
H           -5.42766220377456       -2.37495589871539        0.52416054479909
H           -4.50215707386622       -2.03917605722851        2.06081496130267
H           -8.05325288448907        0.25599788982738        2.20063908924681
H           -8.97920898590880       -0.07697811575433        0.66337092029182
H           -7.94524188716047       -2.53929002043893        0.64518338846067
H           -8.75558337491965       -2.31982716484649        2.26587579400721
16
 energy: -17.822131372033 gnorm: 0.000366254586 xtb: 6.5.1 (b24c23e)
C           -6.85935976179632        0.08007878788062        0.44748902399727
C           -5.61861102064951        0.09911631632444        1.05466311908832
C           -8.02775656910718       -0.05477523880349        1.16924864587291
C           -5.45341997718040       -2.06033322881271        1.55445657061558
C           -6.62244923561608       -2.19883867827882        2.27741375006070
C           -7.86198515877353       -2.22140699236801        1.67134855286035
H           -6.89982039849038       -0.08230237631049       -0.62253012068455
H           -6.58132324568251       -2.03641401514643        3.34740092657492
H           -4.72537211629442        0.19589527789573        0.46064560628069
H           -5.53559458371754        0.41844409340440        2.08021775814546
H           -5.42791485636973       -2.37256624066091        0.52368777473793
H           -4.50258402427313       -2.03655293343771        2.05987145058362
H           -8.05298706518873        0.25357288866025        2.20112967215110
H           -8.97878473954581       -0.07963714032869        0.66432967159321
H           -7.94534138166289       -2.53685414553834        0.64468481413705
H           -8.75560160765304       -2.31714159648213        2.26489753498395
16
 energy: -17.822930164863 gnorm: 0.000360232796 xtb: 6.5.1 (b24c23e)
C           -6.85923649556366        0.07848499136444        0.44798634422338
C           -5.61836037226197        0.09425507359263        1.05580855658059
C           -8.02725790563031       -0.05961953807338        1.17038269150431
C           -5.45391342356553       -2.05548785938022        1.55332279901985
C           -6.62258208913054       -2.19724550855095        2.27691689046967
C           -7.86223054553319       -2.21654613470725        1.67020233785748
H           -6.89971821520984       -0.08359862575416       -0.62206379288382
H           -6.58143529743967       -2.03511841092503        3.34693507288703
H           -4.72536460150343        0.19325800200804        0.46161648671187
H           -5.53549750835333        0.41607379924876        2.08068679304545
H           -5.42817172400394       -2.37020639324187        0.52322641739890
H           -4.50301187071719       -2.03394313740434        2.05892076607551
H           -8.05271624857113        0.25117872328160        2.20160955269460
H           -8.97836010631609       -0.08228179981168        0.66529710662175
H           -7.94543091685854       -2.53444812849798        0.64419622350352
H           -8.75561842134281       -2.31447027515088        2.26391050528841
16
 energy: -17.823726854624 gnorm: 0.000357363365 xtb: 6.5.1 (b24c23e)
C           -6.85911539824222        0.07691788661085        0.44847648860318
C           -5.61811063866149        0.08939407764100        1.05695433612508
C           -8.02675825750165       -0.06446348608659        1.17151754116365
C           -5.45440777304803       -2.05064285554261        1.55218877249145
C           -6.62271293184871       -2.19567904093170        2.27642721429724
C           -7.86247499114188       -2.21168550246387        1.66905522647166
H           -6.89961774046715       -0.08487691831463       -0.62160294469983
H           -6.58154618006252       -2.03384079883761        3.34647472472210
H           -4.72536054365956        0.19063329490601        0.46259023532154
H           -5.53540453311682        0.41373150202446        2.08114420305062
H           -5.42842789162370       -2.36787476487571        0.52277684830866
H           -4.50344177017300       -2.03134627031747        2.05796747788276
H           -8.05244553597913        0.24881381543357        2.20207818376366
H           -8.97793378095836       -0.08491248752030        0.66626815565737
H           -7.94551568016941       -2.53207106399255        0.64371865814462
H           -8.75563209534754       -2.31181260973511        2.26291962969474
16
 energy: -17.824521159925 gnorm: 0.000346683124 xtb: 6.5.1 (b24c23e)
C           -6.85899636510842        0.07537755572019        0.44896042859409
C           -5.61786107935835        0.08453317768609        1.05810060063278
C           -8.02625840105248       -0.06930688436465        1.17265318540994
C           -5.45490232850744       -2.04579797258559        1.55105427935191
C           -6.62284174117111       -2.19413934917115        2.27594374414344
C           -7.86271923598880       -2.20682539319443        1.66790730069738
H           -6.89951895402797       -0.08613591241962       -0.62114681249113
H           -6.58165577174084       -2.03258251116268        3.34601911164200
H           -4.72536048174142        0.18802092522393        0.46356497233838
H           -5.53531284503850        0.41141686224148        2.08158980276765
H           -5.42868060948455       -2.36557065256837        0.52233898558399
H           -4.50387410502169       -2.02876216113226        2.05701351032823
H           -8.05217789589869        0.24647762816805        2.20253546345099
H           -8.97750529278257       -0.08752940441967        0.66724054292327
H           -7.94559866139477       -2.52972280442389        0.64325250617843
H           -8.75564197368357       -2.30916832559970        2.26192712944714
16
 energy: -17.825312782559 gnorm: 0.000341710054 xtb: 6.5.1 (b24c23e)
C           -6.85887933624102        0.07386389825983        0.44943878645547
C           -5.61761119220209        0.07967276048306        1.05924743983216
C           -8.02575884160783       -0.07415004275212        1.17378976906483
C           -5.45539655267340       -2.04095352926617        1.54991917991850
C           -6.62296853063181       -2.19262632982120        2.27546585523834
C           -7.86296383240502       -2.20196556621491        1.66675846666285
H           -6.89942180636109       -0.08737521469391       -0.62069486698351
H           -6.58176402304953       -2.03134393484203        3.34556769965438
H           -4.72536459444566        0.18542089209656        0.46453979494561
H           -5.53522082646364        0.40912977200467        2.08202354971887
H           -5.42892829104486       -2.36329373908595        0.52191271778426
H           -4.50430896547213       -2.02619082656160        2.05605977920785
H           -8.05191506147974        0.24416981503905        2.20298134785441
H           -8.97707447987545       -0.09013264015424        0.66821309550028
H           -7.94568161180127       -2.52740323101568        0.64279797886684
H           -8.75564779624662       -2.30653730547763        2.26093415727736
16
 energy: -17.826101402590 gnorm: 0.000330058827 xtb: 6.5.1 (b24c23e)
C           -6.85876422832423        0.07237674025053        0.44991197404890
C           -5.61736053210713        0.07481260219285        1.06039506928901
C           -8.02526005417821       -0.07899265592366        1.17492731505507
C           -5.45589005505424       -2.03610924715176        1.54878321825947
C           -6.62309328110464       -2.19113980221972        2.27499313093252
C           -7.86320921114947       -2.19710638606906        1.66560874527062
H           -6.89932617488158       -0.08859475753839       -0.62024674843832
H           -6.58187083863164       -2.03012512318862        3.34512011845944
H           -4.72537287239381        0.18283318495061        0.46551426177054
H           -5.53512746858530        0.40687002456314        2.08244546923551
H           -5.42916996995357       -2.36104368838671        0.52149792472487
H           -4.50474630179398       -2.02363225212189        2.05510672282696
H           -8.05165819667319        0.24189021132527        2.20341580005491
H           -8.97664134946971       -0.09272223466789        0.66918512266713
H           -7.94576569806025       -2.52511233161027        0.64235522506297
H           -8.75564950964022       -2.30391950640671        2.25994140177892
16
 energy: -17.826886673554 gnorm: 0.000317423503 xtb: 6.5.1 (b24c23e)
C           -6.85865098934517        0.07091587613720        0.45038030560843
C           -5.61710869754236        0.06995287449519        1.06154361204269
C           -8.02476244878475       -0.08383480833790        1.17606592662339
C           -5.45638243029705       -2.03126524518776        1.54764623288509
C           -6.62321599604077       -2.18967955762202        2.27452525465732
C           -7.86345579901666       -2.19224782297132        1.66445807296327
H           -6.89923198548341       -0.08979458306056       -0.61980217737515
H           -6.58197617750827       -2.02892602658368        3.34467608308450
H           -4.72538522167351        0.18025786494529        0.46648807923206
H           -5.53503201101866        0.40463748141239        2.08285560334109
H           -5.42940491775363       -2.35882026457592        0.52109449269098
H           -4.50518598497122       -2.02108648443093        2.05415462432212
H           -8.05140816176554        0.23963864668962        2.20383878552724
H           -8.97620598142909       -0.09529822505363        0.67015614404881
H           -7.94585178795295       -2.52285004887871        0.64192436251750
H           -8.75564715141814       -2.30131489897955        2.25894934882918
16
 energy: -17.826885943960 gnorm: 0.000046565242 xtb: 6.5.1 (b24c23e)
C           -6.85854976539863        0.07022175919419        0.45052653252920
C           -5.61712655065072        0.07029163380944        1.06159740479006
C           -8.02476913932797       -0.08409951345369        1.17634286670350
C           -5.45636118128200       -2.03160378249760        1.54759227693765
C           -6.62322022004076       -2.18897909912339        2.27437436710405
C           -7.86352322498245       -2.19198796332442        1.66418469394682
H           -6.89921443284085       -0.09015130272425       -0.61973043902376
H           -6.58201204021243       -2.02857050397537        3.34460522455113
H           -4.72531665264378        0.18079454469275        0.46677260629148
H           -5.53531758549120        0.40515875473572        2.08288901143697
H           -5.42962223407172       -2.35937441516560        0.52108524710261