16
 energy: -17.850774264529 gnorm: 0.022073918099 xtb: 6.5.1 (b24c23e)
C           -6.85456470276902        0.02537644672514        0.46788376573931
C           -5.59885487249628       -0.14858597952321        1.11573389388262
C           -8.00921055782531       -0.30405918154834        1.23058119230235
C           -5.47192402149920       -1.81255065152119        1.49332394106516
C           -6.62677247471292       -2.14406720382953        2.25699449938323
C           -7.88192334953731       -1.97221589937703        1.61008137506477
H           -6.89585218788962       -0.12506403672634       -0.60273545663305
H           -6.58485268036399       -1.99360551553496        3.32758635642262
H           -4.72834564943230        0.07937384488267        0.50775745892271
H           -5.52427655870254        0.32773146826083        2.08944433880282
H           -5.42941292357087       -2.28122032601847        0.51399055821320
H           -4.52515007890227       -1.92171846987370        2.01398727034841
H           -8.05188796581606        0.16263315784118        2.21070788242499
H           -8.95612891931987       -0.19633278339876        0.71009011927805
H           -7.95697935115598       -2.44661238148907        0.63561431147980
H           -8.75276944800729       -2.19879771087142        2.21791324430142
16
 energy: -17.850635635871 gnorm: 0.084787234179 xtb: 6.5.1 (b24c23e)
C           -6.85455262207965        0.02515166250554        0.46797039374077
C           -5.59876737172734       -0.14948790731846        1.11597379153853
C           -8.00910890349121       -0.30537538126833        1.23092829107095
C           -5.47198437475362       -1.81164597652294        1.49308606221609
C           -6.62679451056638       -2.14389076554179        2.25690869374288
C           -7.88201947631807       -1.97089809743337        1.60973708252474
H           -6.89585293052121       -0.12524187709022       -0.60265024099278
H           -6.58488196733948       -1.99346651594301        3.32750079803814
H           -4.72832618431992        0.07921806815918        0.50780764199139
H           -5.52424533382775        0.32759783717865        2.08950508815896
H           -5.42940068905113       -2.28106889437270        0.51392522588029
H           -4.52515943135961       -1.92153653982306        2.01393689554315
H           -8.05188510095238        0.16244114760883        2.21078980181920
H           -8.95611291445953       -0.19661670289053        0.71018328875728
H           -7.95701538555332       -2.44640725372371        0.63553124523114
H           -8.75279854568022       -2.19848802552626        2.21782069173768
16
 energy: -17.850784358220 gnorm: 0.000068894680 xtb: 6.5.1 (b24c23e)
C           -6.85455594780959        0.02527738412532        0.46793643973324
C           -5.59881604644105       -0.14876374017275        1.11580889583226
C           -8.00920758834006       -0.30432119167774        1.23070504424287
C           -5.47192206162730       -1.81236906083889        1.49324994022629
C           -6.62677837388930       -2.14401285608009        2.25694229210565
C           -7.88195916437527       -1.97195453144437        1.60996181341492
H           -6.89585540622075       -0.12514858980769       -0.60268456086689
H           -6.58486924525010       -1.99355543068135        3.32753484954764
H           -4.72833575249456        0.07931774460873        0.50779473217627
H           -5.52424469023027        0.32772950095296        2.08945788810047
H           -5.42937858355457       -2.28120045265649        0.51397164823881
H           -4.52515437298174       -1.92163864981510        2.01394983431916
H           -8.05191555216689        0.16265378191845        2.21073027112981
H           -8.95611958768110       -0.19644655404527        0.71016862300501
H           -7.95701173669940       -2.44662293590049        0.63559237499636
H           -8.75278163223889       -2.19865964048744        2.21783466479652
16
 energy: -17.850784352307 gnorm: 0.000399712058 xtb: 6.5.1 (b24c23e)
C           -6.85455619893358        0.02532602290088        0.46790379874717
C           -5.59882749584974       -0.14877752070980        1.11577747737177
C           -8.00920697351120       -0.30432645867058        1.23066253071697
C           -5.47192800895258       -1.81235630528409        1.49327987824107
C           -6.62677119852762       -2.14403451088382        2.25697498316376
C           -7.88196020764857       -1.97194939101078        1.61000221631550
H           -6.89585603901480       -0.12509102241112       -0.60271686608276
H           -6.58486117330887       -1.99358736113539        3.32756787328186
H           -4.72834550385330        0.07930416258958        0.50777639994729
H           -5.52425109675453        0.32767697078876        2.08943935833706
H           -5.42939201099460       -2.28115885719153        0.51399293273515
H           -4.52516172156572       -1.92164182471481        2.01396846352778
H           -8.05190237303517        0.16257471016475        2.21071108331357
H           -8.95611150201342       -0.19643324397780        0.71014050800947
H           -7.95700419861655       -2.44655243361906        0.63561256597491
H           -8.75277003942058       -2.19868815883739        2.21786154739784
16
 energy: -17.850784356019 gnorm: 0.000303006193 xtb: 6.5.1 (b24c23e)
C           -6.85455551467827        0.02533144465625        0.46790453984730
C           -5.59882833340934       -0.14876904119517        1.11577642316659
C           -8.00920818320320       -0.30433287115532        1.23066492187018
C           -5.47192643153188       -1.81236567620802        1.49328057705608
C           -6.62677070913405       -2.14402857786263        2.25697350276664
C           -7.88196369435218       -1.97194430874480        1.60999976286977
H           -6.89585771874290       -0.12508598757981       -0.60271575608311
H           -6.58486260608033       -1.99358809874732        3.32756717288783
H           -4.72834852191839        0.07930051027785        0.50777676050232
H           -5.52425063687292        0.32767955800191        2.08943699006972
H           -5.42939260638270       -2.28116368550801        0.51399545499070
H           -4.52516462079247       -1.92164312988430        2.01396872192272
H           -8.05190114836947        0.16257342997575        2.21070892748399
H           -8.95610748278885       -0.19643514611755        0.71014050000691
H           -7.95700114457199       -2.44655318172774        0.63561468724826
H           -8.75276638917189       -2.19869046018330        2.21786156439249
