16
 energy: -17.850784356074 gnorm: 0.000303061591 xtb: 6.5.1 (b24c23e)
C           -6.85455551467827        0.02533144465625        0.46790453984730
C           -5.59882833340934       -0.14876904119517        1.11577642316659
C           -8.00920818320320       -0.30433287115532        1.23066492187018
C           -5.47192643153188       -1.81236567620802        1.49328057705608
C           -6.62677070913405       -2.14402857786263        2.25697350276664
C           -7.88196369435218       -1.97194430874480        1.60999976286977
H           -6.89585771874290       -0.12508598757981       -0.60271575608311
H           -6.58486260608033       -1.99358809874732        3.32756717288783
H           -4.72834852191839        0.07930051027785        0.50777676050232
H           -5.52425063687292        0.32767955800191        2.08943699006972
H           -5.42939260638270       -2.28116368550801        0.51399545499070
H           -4.52516462079247       -1.92164312988430        2.01396872192272
H           -8.05190114836947        0.16257342997575        2.21070892748399
H           -8.95610748278885       -0.19643514611755        0.71014050000691
H           -7.95700114457199       -2.44655318172774        0.63561468724826
H           -8.75276638917189       -2.19869046018330        2.21786156439249
